
     Program PWSCF v.7.2 starts on  2Jun2023 at 13:18:50 

     This program is part of the open-source Quantum ESPRESSO suite
     for quantum simulation of materials; please cite
         "P. Giannozzi et al., J. Phys.:Condens. Matter 21 395502 (2009);
         "P. Giannozzi et al., J. Phys.:Condens. Matter 29 465901 (2017);
         "P. Giannozzi et al., J. Chem. Phys. 152 154105 (2020);
          URL http://www.quantum-espresso.org", 
     in publications or presentations arising from this work. More details at
     http://www.quantum-espresso.org/quote

     Parallel version (MPI), running on     1 processors

     MPI processes distributed on     1 nodes
     9247 MiB available memory on the printing compute node when the environment starts

     Waiting for input...
     Reading input from standard input

     Current dimensions of program PWSCF are:
     Max number of different atomic species (ntypx) = 10
     Max number of k-points (npk) =  40000
     Max angular momentum in pseudopotentials (lmaxx) =  4

     Subspace diagonalization in iterative solution of the eigenvalue problem:
     a serial algorithm will be used


     G-vector sticks info
     --------------------
     sticks:   dense  smooth     PW     G-vecs:    dense   smooth      PW
     Sum         121     121     55                  941      941     283

     Using Slab Decomposition



     bravais-lattice index     =            2
     lattice parameter (alat)  =       7.6520  a.u.
     unit-cell volume          =     112.0121 (a.u.)^3
     number of atoms/cell      =            1
     number of atomic types    =            1
     number of electrons       =         3.00
     number of Kohn-Sham states=            6
     kinetic-energy cutoff     =      16.0000  Ry
     charge density cutoff     =      64.0000  Ry
     scf convergence threshold =      1.0E-08
     mixing beta               =       0.7000
     number of iterations used =            8  plain     mixing
     energy convergence thresh.=      1.0E-06
     force convergence thresh. =      1.0E-05
     press convergence thresh. =      5.0E-01
     Exchange-correlation= SLA  PZ   NOGX NOGC
                           (   1   1   0   0   0   0   0)
     nstep                     =           50


     celldm(1)=   7.652000  celldm(2)=   0.000000  celldm(3)=   0.000000
     celldm(4)=   0.000000  celldm(5)=   0.000000  celldm(6)=   0.000000

     crystal axes: (cart. coord. in units of alat)
               a(1) = (  -0.500000   0.000000   0.500000 )  
               a(2) = (   0.000000   0.500000   0.500000 )  
               a(3) = (  -0.500000   0.500000   0.000000 )  

     reciprocal axes: (cart. coord. in units 2 pi/alat)
               b(1) = ( -1.000000 -1.000000  1.000000 )  
               b(2) = (  1.000000  1.000000  1.000000 )  
               b(3) = ( -1.000000  1.000000 -1.000000 )  


     PseudoPot. # 1 for Al read from file:
     ../../pseudo/Al.pz-vbc.UPF
     MD5 check sum: 69dcd8cd7cc1bedf536afd524f174f6a
     Pseudo is Norm-conserving, Zval =  3.0
     Generated by new atomic code, or converted to UPF format
     Using radial grid of  171 points,  2 beta functions with: 
                l(1) =   0
                l(2) =   1

     atomic species   valence    mass     pseudopotential
        Al             3.00    26.98100     Al( 1.00)

     48 Sym. Ops., with inversion, found



   Cartesian axes

     site n.     atom                  positions (alat units)
         1           Al  tau(   1) = (   0.0000000   0.0000000   0.0000000  )

     number of k points=   110  Gaussian smearing, width (Ry)=  0.0100

     Number of k-points >= 100: set verbosity='high' to print them.

     Dense  grid:      941 G-vectors     FFT dimensions: (  15,  15,  15)

     Estimated max dynamical RAM per process >       2.02 MB

     Initial potential from superposition of free atoms

     starting charge       2.9979, renormalised to       3.0000
     Starting wfcs are    4 randomized atomic wfcs +    2 random wfcs

     total cpu time spent up to now is        0.1 secs

     Self-consistent Calculation

     iteration #  1     ecut=    16.00 Ry     beta= 0.70
     Davidson diagonalization with overlap
     ethr =  1.00E-02,  avg # of iterations =  5.3

     Threshold (ethr) on eigenvalues was too large:
     Diagonalizing with lowered threshold

     Davidson diagonalization with overlap
     ethr =  1.93E-04,  avg # of iterations =  1.7

     total cpu time spent up to now is        0.6 secs

     total energy              =      -4.18689462 Ry
     estimated scf accuracy    <       0.00576011 Ry

     iteration #  2     ecut=    16.00 Ry     beta= 0.70
     Davidson diagonalization with overlap
     ethr =  1.92E-04,  avg # of iterations =  1.0

     total cpu time spent up to now is        0.8 secs

     total energy              =      -4.18688765 Ry
     estimated scf accuracy    <       0.00043163 Ry

     iteration #  3     ecut=    16.00 Ry     beta= 0.70
     Davidson diagonalization with overlap
     ethr =  1.44E-05,  avg # of iterations =  2.2

     total cpu time spent up to now is        0.9 secs

     total energy              =      -4.18689096 Ry
     estimated scf accuracy    <       0.00000035 Ry

     iteration #  4     ecut=    16.00 Ry     beta= 0.70
     Davidson diagonalization with overlap
     ethr =  1.16E-08,  avg # of iterations =  2.1

     total cpu time spent up to now is        1.1 secs

     End of self-consistent calculation

     Number of k-points >= 100: set verbosity='high' to print the bands.

     the Fermi energy is     7.7301 ev

!    total energy              =      -4.18689099 Ry
     estimated scf accuracy    <          2.7E-09 Ry
     smearing contrib. (-TS)   =      -0.00027428 Ry
     internal energy E=F+TS    =      -4.18661670 Ry

     The total energy is F=E-TS. E is the sum of the following terms:
     one-electron contribution =       2.80185583 Ry
     hartree contribution      =       0.00878849 Ry
     xc contribution           =      -1.60471544 Ry
     ewald contribution        =      -5.39254559 Ry

     convergence has been achieved in   4 iterations

     Forces acting on atoms (cartesian axes, Ry/au):

     atom    1 type  1   force =     0.00000000    0.00000000    0.00000000
     The non-local contrib.  to forces
     atom    1 type  1   force =     0.00000000    0.00000000    0.00000000
     The ionic contribution  to forces
     atom    1 type  1   force =    -0.00000000   -0.00000000   -0.00000000
     The local contribution  to forces
     atom    1 type  1   force =     0.00000000   -0.00000000    0.00000000
     The core correction contribution to forces
     atom    1 type  1   force =     0.00000000    0.00000000    0.00000000
     The Hubbard contrib.    to forces
     atom    1 type  1   force =     0.00000000    0.00000000    0.00000000
     The SCF correction term to forces
     atom    1 type  1   force =    -0.00000000   -0.00000000    0.00000000

     Total force =     0.000000     Total SCF correction =     0.000000


     Computing stress (Cartesian axis) and pressure

          total   stress  (Ry/bohr**3)                   (kbar)     P=      -55.20
  -0.00037524  -0.00000000  -0.00000000          -55.20       -0.00       -0.00
  -0.00000000  -0.00037524  -0.00000000           -0.00      -55.20       -0.00
  -0.00000000  -0.00000000  -0.00037524           -0.00       -0.00      -55.20


     BFGS Geometry Optimization
     Energy error            =      0.0E+00 Ry
     Gradient error          =      0.0E+00 Ry/Bohr
     Cell gradient error     =      5.5E+01 kbar

     number of scf cycles    =   1
     number of bfgs steps    =   0

     enthalpy           new  =      -4.1868909855 Ry

     new trust radius        =       0.0198571024 bohr
ibrav =      2
 celldm(1) =      7.58021588
Input lattice vectors:
    -0.49530945     0.00000000     0.49530945
    -0.00000000     0.49530945     0.49530945
    -0.49530945     0.49530945     0.00000000
New lattice vectors in INITIAL alat:
    -0.49530945     0.00000000     0.49530945
     0.00000000     0.49530945     0.49530945
    -0.49530945     0.49530945     0.00000000
New lattice vectors in NEW alat (for information only):
    -0.50000000     0.00000000     0.50000000
     0.00000000     0.50000000     0.50000000
    -0.50000000     0.50000000     0.00000000
Discrepancy in bohr =     0.000000    0.000000    0.000000

Atomic positions rescaled with new alat:
Al            0.0000000000        0.0000000000        0.0000000000
     new conv_thr            =       0.0000000100 Ry

     new unit-cell volume =    108.88918 a.u.^3 (    16.13571 Ang^3 )
     density =      2.77664 g/cm^3

CELL_PARAMETERS (alat=  7.65200000)
  -0.495309454   0.000000000   0.495309454
   0.000000000   0.495309454   0.495309454
  -0.495309454   0.495309454   0.000000000

ATOMIC_POSITIONS (alat)
Al            0.0000000000        0.0000000000        0.0000000000



     Writing config-only to output data dir ./tmp/al.save/
     NEW-OLD atomic charge density approx. for the potential
     extrapolated charge    2.91402, renormalised to    3.00000

     total cpu time spent up to now is        1.2 secs

     Self-consistent Calculation

     iteration #  1     ecut=    16.00 Ry     beta= 0.70
     Davidson diagonalization with overlap
     ethr =  1.00E-06,  avg # of iterations =  3.3

     total cpu time spent up to now is        1.4 secs

     total energy              =      -4.18787338 Ry
     estimated scf accuracy    <       0.00000572 Ry

     iteration #  2     ecut=    16.00 Ry     beta= 0.70
     Davidson diagonalization with overlap
     ethr =  1.91E-07,  avg # of iterations =  1.0

     total cpu time spent up to now is        1.6 secs

     total energy              =      -4.18787401 Ry
     estimated scf accuracy    <       0.00000061 Ry

     iteration #  3     ecut=    16.00 Ry     beta= 0.70
     Davidson diagonalization with overlap
     ethr =  2.04E-08,  avg # of iterations =  1.0

     total cpu time spent up to now is        1.7 secs

     End of self-consistent calculation

     Number of k-points >= 100: set verbosity='high' to print the bands.

     the Fermi energy is     8.0280 ev

!    total energy              =      -4.18787402 Ry
     estimated scf accuracy    <          1.0E-09 Ry
     smearing contrib. (-TS)   =      -0.00026765 Ry
     internal energy E=F+TS    =      -4.18760637 Ry

     The total energy is F=E-TS. E is the sum of the following terms:
     one-electron contribution =       2.86546433 Ry
     hartree contribution      =       0.00917583 Ry
     xc contribution           =      -1.61863391 Ry
     ewald contribution        =      -5.44361262 Ry

     convergence has been achieved in   3 iterations

     Forces acting on atoms (cartesian axes, Ry/au):

     atom    1 type  1   force =     0.00000000    0.00000000    0.00000000
     The non-local contrib.  to forces
     atom    1 type  1   force =     0.00000000    0.00000000    0.00000000
     The ionic contribution  to forces
     atom    1 type  1   force =    -0.00000000   -0.00000000   -0.00000000
     The local contribution  to forces
     atom    1 type  1   force =    -0.00000000    0.00000000   -0.00000000
     The core correction contribution to forces
     atom    1 type  1   force =     0.00000000    0.00000000    0.00000000
     The Hubbard contrib.    to forces
     atom    1 type  1   force =     0.00000000    0.00000000    0.00000000
     The SCF correction term to forces
     atom    1 type  1   force =    -0.00000000   -0.00000000    0.00000000

     Total force =     0.000000     Total SCF correction =     0.000000


     Computing stress (Cartesian axis) and pressure

          total   stress  (Ry/bohr**3)                   (kbar)     P=      -36.91
  -0.00025093  -0.00000000  -0.00000000          -36.91       -0.00       -0.00
  -0.00000000  -0.00025093   0.00000000           -0.00      -36.91        0.00
  -0.00000000   0.00000000  -0.00025093           -0.00        0.00      -36.91

     Energy error            =      9.8E-04 Ry
     Gradient error          =      0.0E+00 Ry/Bohr
     Cell gradient error     =      3.7E+01 kbar

     number of scf cycles    =   2
     number of bfgs steps    =   1

     enthalpy           old  =      -4.1868909855 Ry
     enthalpy           new  =      -4.1878740153 Ry

     CASE: enthalpy          _new < enthalpy          _old

     new trust radius        =       0.0296456134 bohr
ibrav =      2
 celldm(1) =      7.47253969
Input lattice vectors:
    -0.48827363     0.00000000     0.48827363
    -0.00000000     0.48827363     0.48827363
    -0.48827363     0.48827363     0.00000000
New lattice vectors in INITIAL alat:
    -0.48827363     0.00000000     0.48827363
     0.00000000     0.48827363     0.48827363
    -0.48827363     0.48827363     0.00000000
New lattice vectors in NEW alat (for information only):
    -0.50000000     0.00000000     0.50000000
     0.00000000     0.50000000     0.50000000
    -0.50000000     0.50000000     0.00000000
Discrepancy in bohr =     0.000000    0.000000    0.000000

Atomic positions rescaled with new alat:
Al            0.0000000000        0.0000000000        0.0000000000
     new conv_thr            =            1.0E-10 Ry

     new unit-cell volume =    104.31450 a.u.^3 (    15.45781 Ang^3 )
     density =      2.89840 g/cm^3

CELL_PARAMETERS (alat=  7.65200000)
  -0.488273634   0.000000000   0.488273634
   0.000000000   0.488273634   0.488273634
  -0.488273634   0.488273634   0.000000000

ATOMIC_POSITIONS (alat)
Al            0.0000000000        0.0000000000        0.0000000000



     Writing config-only to output data dir ./tmp/al.save/
     NEW-OLD atomic charge density approx. for the potential
     extrapolated charge    2.86853, renormalised to    3.00000

     total cpu time spent up to now is        1.8 secs

     Self-consistent Calculation

     iteration #  1     ecut=    16.00 Ry     beta= 0.70
     Davidson diagonalization with overlap
     ethr =  1.00E-06,  avg # of iterations =  3.9

     total cpu time spent up to now is        2.1 secs

     total energy              =      -4.18852950 Ry
     estimated scf accuracy    <       0.00001503 Ry

     iteration #  2     ecut=    16.00 Ry     beta= 0.70
     Davidson diagonalization with overlap
     ethr =  5.01E-07,  avg # of iterations =  1.0

     total cpu time spent up to now is        2.3 secs

     total energy              =      -4.18853100 Ry
     estimated scf accuracy    <       0.00000175 Ry

     iteration #  3     ecut=    16.00 Ry     beta= 0.70
     Davidson diagonalization with overlap
     ethr =  5.83E-08,  avg # of iterations =  1.0

     total cpu time spent up to now is        2.4 secs

     total energy              =      -4.18853102 Ry
     estimated scf accuracy    <          1.1E-09 Ry

     iteration #  4     ecut=    16.00 Ry     beta= 0.70
     Davidson diagonalization with overlap
     ethr =  3.54E-11,  avg # of iterations =  2.1

     total cpu time spent up to now is        2.6 secs

     total energy              =      -4.18853102 Ry
     estimated scf accuracy    <          1.7E-10 Ry

     iteration #  5     ecut=    16.00 Ry     beta= 0.70
     Davidson diagonalization with overlap
     ethr =  5.54E-12,  avg # of iterations =  1.0

     total cpu time spent up to now is        2.8 secs

     End of self-consistent calculation

     Number of k-points >= 100: set verbosity='high' to print the bands.

     the Fermi energy is     8.4877 ev

!    total energy              =      -4.18853102 Ry
     estimated scf accuracy    <          2.7E-13 Ry
     smearing contrib. (-TS)   =      -0.00025684 Ry
     internal energy E=F+TS    =      -4.18827418 Ry

     The total energy is F=E-TS. E is the sum of the following terms:
     one-electron contribution =       2.96396152 Ry
     hartree contribution      =       0.00996287 Ry
     xc contribution           =      -1.64014577 Ry
     ewald contribution        =      -5.52205280 Ry

     convergence has been achieved in   5 iterations

     Forces acting on atoms (cartesian axes, Ry/au):

     atom    1 type  1   force =     0.00000000    0.00000000    0.00000000
     The non-local contrib.  to forces
     atom    1 type  1   force =    -0.00000000   -0.00000000    0.00000000
     The ionic contribution  to forces
     atom    1 type  1   force =    -0.00000000   -0.00000000   -0.00000000
     The local contribution  to forces
     atom    1 type  1   force =     0.00000000   -0.00000000    0.00000000
     The core correction contribution to forces
     atom    1 type  1   force =     0.00000000    0.00000000    0.00000000
     The Hubbard contrib.    to forces
     atom    1 type  1   force =     0.00000000    0.00000000    0.00000000
     The SCF correction term to forces
     atom    1 type  1   force =    -0.00000000    0.00000000   -0.00000000

     Total force =     0.000000     Total SCF correction =     0.000000


     Computing stress (Cartesian axis) and pressure

          total   stress  (Ry/bohr**3)                   (kbar)     P=       -4.03
  -0.00002739  -0.00000000   0.00000000           -4.03       -0.00        0.00
  -0.00000000  -0.00002739   0.00000000           -0.00       -4.03        0.00
  -0.00000000  -0.00000000  -0.00002739           -0.00       -0.00       -4.03

     Energy error            =      6.6E-04 Ry
     Gradient error          =      0.0E+00 Ry/Bohr
     Cell gradient error     =      4.0E+00 kbar

     number of scf cycles    =   3
     number of bfgs steps    =   2

     enthalpy           old  =      -4.1878740153 Ry
     enthalpy           new  =      -4.1885310229 Ry

     CASE: enthalpy          _new < enthalpy          _old

     new trust radius        =       0.0034927063 bohr
ibrav =      2
 celldm(1) =      7.45976272
Input lattice vectors:
    -0.48743876    -0.00000000     0.48743876
     0.00000000     0.48743876     0.48743876
    -0.48743876     0.48743876    -0.00000000
New lattice vectors in INITIAL alat:
    -0.48743876     0.00000000     0.48743876
     0.00000000     0.48743876     0.48743876
    -0.48743876     0.48743876     0.00000000
New lattice vectors in NEW alat (for information only):
    -0.50000000     0.00000000     0.50000000
     0.00000000     0.50000000     0.50000000
    -0.50000000     0.50000000     0.00000000
Discrepancy in bohr =     0.000000    0.000000    0.000000

Atomic positions rescaled with new alat:
Al            0.0000000000        0.0000000000        0.0000000000
     new conv_thr            =            1.0E-10 Ry

     new unit-cell volume =    103.78033 a.u.^3 (    15.37866 Ang^3 )
     density =      2.91332 g/cm^3

CELL_PARAMETERS (alat=  7.65200000)
  -0.487438756   0.000000000   0.487438756
   0.000000000   0.487438756   0.487438756
  -0.487438756   0.487438756   0.000000000

ATOMIC_POSITIONS (alat)
Al            0.0000000000        0.0000000000        0.0000000000



     Writing config-only to output data dir ./tmp/al.save/
     NEW-OLD atomic charge density approx. for the potential
     extrapolated charge    2.98457, renormalised to    3.00000

     total cpu time spent up to now is        2.8 secs

     Self-consistent Calculation

     iteration #  1     ecut=    16.00 Ry     beta= 0.70
     Davidson diagonalization with overlap
     ethr =  1.00E-06,  avg # of iterations =  2.0

     Threshold (ethr) on eigenvalues was too large:
     Diagonalizing with lowered threshold

     Davidson diagonalization with overlap
     ethr =  5.70E-09,  avg # of iterations =  1.3

     total cpu time spent up to now is        3.2 secs

     total energy              =      -4.18853772 Ry
     estimated scf accuracy    <       0.00000015 Ry

     iteration #  2     ecut=    16.00 Ry     beta= 0.70
     Davidson diagonalization with overlap
     ethr =  5.02E-09,  avg # of iterations =  1.0

     total cpu time spent up to now is        3.3 secs

     total energy              =      -4.18853774 Ry
     estimated scf accuracy    <       0.00000002 Ry

     iteration #  3     ecut=    16.00 Ry     beta= 0.70
     Davidson diagonalization with overlap
     ethr =  6.09E-10,  avg # of iterations =  1.0

     total cpu time spent up to now is        3.5 secs

     End of self-consistent calculation

     Number of k-points >= 100: set verbosity='high' to print the bands.

     the Fermi energy is     8.5431 ev

!    total energy              =      -4.18853774 Ry
     estimated scf accuracy    <          1.8E-11 Ry
     smearing contrib. (-TS)   =      -0.00025546 Ry
     internal energy E=F+TS    =      -4.18828228 Ry

     The total energy is F=E-TS. E is the sum of the following terms:
     one-electron contribution =       2.97590611 Ry
     hartree contribution      =       0.01007185 Ry
     xc contribution           =      -1.64274935 Ry
     ewald contribution        =      -5.53151089 Ry

     convergence has been achieved in   3 iterations

     Forces acting on atoms (cartesian axes, Ry/au):

     atom    1 type  1   force =     0.00000000    0.00000000    0.00000000
     The non-local contrib.  to forces
     atom    1 type  1   force =    -0.00000000    0.00000000   -0.00000000
     The ionic contribution  to forces
     atom    1 type  1   force =    -0.00000000   -0.00000000   -0.00000000
     The local contribution  to forces
     atom    1 type  1   force =    -0.00000000   -0.00000000   -0.00000000
     The core correction contribution to forces
     atom    1 type  1   force =     0.00000000    0.00000000    0.00000000
     The Hubbard contrib.    to forces
     atom    1 type  1   force =     0.00000000    0.00000000    0.00000000
     The SCF correction term to forces
     atom    1 type  1   force =     0.00000000   -0.00000000    0.00000000

     Total force =     0.000000     Total SCF correction =     0.000000


     Computing stress (Cartesian axis) and pressure

          total   stress  (Ry/bohr**3)                   (kbar)     P=        0.35
   0.00000237  -0.00000000   0.00000000            0.35       -0.00        0.00
  -0.00000000   0.00000237   0.00000000           -0.00        0.35        0.00
  -0.00000000   0.00000000   0.00000237           -0.00        0.00        0.35

     Energy error            =      6.7E-06 Ry
     Gradient error          =      0.0E+00 Ry/Bohr
     Cell gradient error     =      3.5E-01 kbar

     number of scf cycles    =   4
     number of bfgs steps    =   3

     enthalpy           old  =      -4.1885310229 Ry
     enthalpy           new  =      -4.1885377394 Ry

     CASE: enthalpy          _new < enthalpy          _old

     new trust radius        =       0.0002770932 bohr
ibrav =      2
 celldm(1) =      7.46077725
Input lattice vectors:
    -0.48750505     0.00000000     0.48750505
    -0.00000000     0.48750505     0.48750505
    -0.48750505     0.48750505     0.00000000
New lattice vectors in INITIAL alat:
    -0.48750505     0.00000000     0.48750505
     0.00000000     0.48750505     0.48750505
    -0.48750505     0.48750505     0.00000000
New lattice vectors in NEW alat (for information only):
    -0.50000000     0.00000000     0.50000000
     0.00000000     0.50000000     0.50000000
    -0.50000000     0.50000000     0.00000000
Discrepancy in bohr =     0.000000    0.000000    0.000000

Atomic positions rescaled with new alat:
Al            0.0000000000        0.0000000000        0.0000000000
     new conv_thr            =            1.0E-10 Ry

     new unit-cell volume =    103.82268 a.u.^3 (    15.38493 Ang^3 )
     density =      2.91214 g/cm^3

CELL_PARAMETERS (alat=  7.65200000)
  -0.487505048   0.000000000   0.487505048
   0.000000000   0.487505048   0.487505048
  -0.487505048   0.487505048   0.000000000

ATOMIC_POSITIONS (alat)
Al            0.0000000000        0.0000000000        0.0000000000



     Writing config-only to output data dir ./tmp/al.save/
     NEW-OLD atomic charge density approx. for the potential
     extrapolated charge    3.00122, renormalised to    3.00000

     total cpu time spent up to now is        3.5 secs

     Self-consistent Calculation

     iteration #  1     ecut=    16.00 Ry     beta= 0.70
     Davidson diagonalization with overlap
     ethr =  1.00E-06,  avg # of iterations =  1.0

     Threshold (ethr) on eigenvalues was too large:
     Diagonalizing with lowered threshold

     Davidson diagonalization with overlap
     ethr =  3.27E-11,  avg # of iterations =  2.3

     total cpu time spent up to now is        3.9 secs

     total energy              =      -4.18853779 Ry
     estimated scf accuracy    <          8.8E-10 Ry

     iteration #  2     ecut=    16.00 Ry     beta= 0.70
     Davidson diagonalization with overlap
     ethr =  2.94E-11,  avg # of iterations =  1.0

     total cpu time spent up to now is        4.0 secs

     total energy              =      -4.18853779 Ry
     estimated scf accuracy    <          1.1E-10 Ry

     iteration #  3     ecut=    16.00 Ry     beta= 0.70
     Davidson diagonalization with overlap
     ethr =  3.63E-12,  avg # of iterations =  1.0

     total cpu time spent up to now is        4.2 secs

     End of self-consistent calculation

     Number of k-points >= 100: set verbosity='high' to print the bands.

     the Fermi energy is     8.5387 ev

!    total energy              =      -4.18853779 Ry
     estimated scf accuracy    <          1.3E-13 Ry
     smearing contrib. (-TS)   =      -0.00025557 Ry
     internal energy E=F+TS    =      -4.18828222 Ry

     The total energy is F=E-TS. E is the sum of the following terms:
     one-electron contribution =       2.97495564 Ry
     hartree contribution      =       0.01006302 Ry
     xc contribution           =      -1.64254217 Ry
     ewald contribution        =      -5.53075871 Ry

     convergence has been achieved in   3 iterations

     Forces acting on atoms (cartesian axes, Ry/au):

     atom    1 type  1   force =     0.00000000    0.00000000    0.00000000
     The non-local contrib.  to forces
     atom    1 type  1   force =    -0.00000000   -0.00000000    0.00000000
     The ionic contribution  to forces
     atom    1 type  1   force =    -0.00000000   -0.00000000   -0.00000000
     The local contribution  to forces
     atom    1 type  1   force =    -0.00000000    0.00000000   -0.00000000
     The core correction contribution to forces
     atom    1 type  1   force =     0.00000000    0.00000000    0.00000000
     The Hubbard contrib.    to forces
     atom    1 type  1   force =     0.00000000    0.00000000    0.00000000
     The SCF correction term to forces
     atom    1 type  1   force =     0.00000000   -0.00000000   -0.00000000

     Total force =     0.000000     Total SCF correction =     0.000000


     Computing stress (Cartesian axis) and pressure

          total   stress  (Ry/bohr**3)                   (kbar)     P=       -0.00
  -0.00000001   0.00000000   0.00000000           -0.00        0.00        0.00
   0.00000000  -0.00000001   0.00000000            0.00       -0.00        0.00
  -0.00000000   0.00000000  -0.00000001           -0.00        0.00       -0.00

     Energy error            =      5.0E-08 Ry
     Gradient error          =      0.0E+00 Ry/Bohr
     Cell gradient error     =      1.3E-03 kbar
ibrav =      2
 celldm(1) =      7.46077725
Input lattice vectors:
    -0.48750505     0.00000000     0.48750505
     0.00000000     0.48750505     0.48750505
    -0.48750505     0.48750505     0.00000000
New lattice vectors in INITIAL alat:
    -0.48750505     0.00000000     0.48750505
     0.00000000     0.48750505     0.48750505
    -0.48750505     0.48750505     0.00000000
New lattice vectors in NEW alat (for information only):
    -0.50000000     0.00000000     0.50000000
     0.00000000     0.50000000     0.50000000
    -0.50000000     0.50000000     0.00000000
Discrepancy in bohr =     0.000000    0.000000    0.000000

Atomic positions rescaled with new alat:
Al            0.0000000000        0.0000000000        0.0000000000

     bfgs converged in   5 scf cycles and   4 bfgs steps
     (criteria: energy <  1.0E-06 Ry, force <  1.0E-05 Ry/Bohr, cell <  5.0E-01 kbar)

     End of BFGS Geometry Optimization

     Final enthalpy           =      -4.1885377897 Ry

     File ./tmp/al.bfgs deleted, as requested
Begin final coordinates
     new unit-cell volume =    103.82268 a.u.^3 (    15.38493 Ang^3 )
     density =      2.91214 g/cm^3

CELL_PARAMETERS (alat=  7.65200000)
  -0.487505048   0.000000000   0.487505048
   0.000000000   0.487505048   0.487505048
  -0.487505048   0.487505048   0.000000000

ATOMIC_POSITIONS (alat)
Al            0.0000000000        0.0000000000        0.0000000000
End final coordinates



     Writing config-only to output data dir ./tmp/al.save/

     Final scf calculation at the relaxed structure.
     The G-vectors are recalculated for the final unit cell
     Results may differ from those at the preceding step.

     G-vector sticks info
     --------------------
     sticks:   dense  smooth     PW     G-vecs:    dense   smooth      PW
     Sum         121     121     55                  893      893     259

     Using Slab Decomposition



     bravais-lattice index     =            2
     lattice parameter (alat)  =       7.6520  a.u.
     unit-cell volume          =     103.8227 (a.u.)^3
     number of atoms/cell      =            1
     number of atomic types    =            1
     number of electrons       =         3.00
     number of Kohn-Sham states=            6
     kinetic-energy cutoff     =      16.0000  Ry
     charge density cutoff     =      64.0000  Ry
     scf convergence threshold =      1.0E-10
     mixing beta               =       0.7000
     number of iterations used =            8  plain     mixing
     press convergence thresh. =      5.0E-01
     Exchange-correlation= SLA  PZ   NOGX NOGC
                           (   1   1   0   0   0   0   0)

     celldm(1)=   7.652000  celldm(2)=   0.000000  celldm(3)=   0.000000
     celldm(4)=   0.000000  celldm(5)=   0.000000  celldm(6)=   0.000000

     crystal axes: (cart. coord. in units of alat)
               a(1) = (  -0.487505   0.000000   0.487505 )  
               a(2) = (   0.000000   0.487505   0.487505 )  
               a(3) = (  -0.487505   0.487505   0.000000 )  

     reciprocal axes: (cart. coord. in units 2 pi/alat)
               b(1) = ( -1.025630 -1.025630  1.025630 )  
               b(2) = (  1.025630  1.025630  1.025630 )  
               b(3) = ( -1.025630  1.025630 -1.025630 )  


     PseudoPot. # 1 for Al read from file:
     ../../pseudo/Al.pz-vbc.UPF
     MD5 check sum: 69dcd8cd7cc1bedf536afd524f174f6a
     Pseudo is Norm-conserving, Zval =  3.0
     Generated by new atomic code, or converted to UPF format
     Using radial grid of  171 points,  2 beta functions with: 
                l(1) =   0
                l(2) =   1

     atomic species   valence    mass     pseudopotential
        Al             3.00    26.98100     Al( 1.00)

     48 Sym. Ops., with inversion, found



   Cartesian axes

     site n.     atom                  positions (alat units)
         1           Al  tau(   1) = (   0.0000000   0.0000000   0.0000000  )

     number of k points=   110  Gaussian smearing, width (Ry)=  0.0100

     Number of k-points >= 100: set verbosity='high' to print them.

     Dense  grid:      893 G-vectors     FFT dimensions: (  15,  15,  15)

     Estimated max dynamical RAM per process >       1.91 MB

     Initial potential from superposition of free atoms

     starting charge       2.9979, renormalised to       3.0000
     Starting wfcs are    4 randomized atomic wfcs +    2 random wfcs

     total cpu time spent up to now is        4.3 secs

     Self-consistent Calculation

     iteration #  1     ecut=    16.00 Ry     beta= 0.70
     Davidson diagonalization with overlap
     c_bands:  2 eigenvalues not converged
     c_bands:  1 eigenvalues not converged
     c_bands:  1 eigenvalues not converged
     c_bands:  1 eigenvalues not converged
     c_bands:  1 eigenvalues not converged
     c_bands:  1 eigenvalues not converged
     c_bands:  1 eigenvalues not converged
     c_bands:  1 eigenvalues not converged
     c_bands:  1 eigenvalues not converged
     c_bands:  1 eigenvalues not converged
     ethr =  1.00E-06,  avg # of iterations = 13.5

     total cpu time spent up to now is        5.1 secs

     total energy              =      -4.18814096 Ry
     estimated scf accuracy    <       0.00587904 Ry

     iteration #  2     ecut=    16.00 Ry     beta= 0.70
     Davidson diagonalization with overlap
     ethr =  1.96E-04,  avg # of iterations =  1.0

     total cpu time spent up to now is        5.2 secs

     total energy              =      -4.18813846 Ry
     estimated scf accuracy    <       0.00045823 Ry

     iteration #  3     ecut=    16.00 Ry     beta= 0.70
     Davidson diagonalization with overlap
     ethr =  1.53E-05,  avg # of iterations =  1.0

     total cpu time spent up to now is        5.4 secs

     total energy              =      -4.18814133 Ry
     estimated scf accuracy    <       0.00000029 Ry

     iteration #  4     ecut=    16.00 Ry     beta= 0.70
     Davidson diagonalization with overlap
     ethr =  9.80E-09,  avg # of iterations =  1.3

     total cpu time spent up to now is        5.5 secs

     total energy              =      -4.18814135 Ry
     estimated scf accuracy    <          3.5E-09 Ry

     iteration #  5     ecut=    16.00 Ry     beta= 0.70
     Davidson diagonalization with overlap
     ethr =  1.16E-10,  avg # of iterations =  1.5

     total cpu time spent up to now is        5.7 secs

     End of self-consistent calculation

     Number of k-points >= 100: set verbosity='high' to print the bands.

     the Fermi energy is     8.5412 ev

!    total energy              =      -4.18814135 Ry
     estimated scf accuracy    <          1.3E-11 Ry
     smearing contrib. (-TS)   =      -0.00025418 Ry
     internal energy E=F+TS    =      -4.18788717 Ry

     The total energy is F=E-TS. E is the sum of the following terms:
     one-electron contribution =       2.97533007 Ry
     hartree contribution      =       0.01007777 Ry
     xc contribution           =      -1.64253628 Ry
     ewald contribution        =      -5.53075872 Ry

     convergence has been achieved in   5 iterations

     Forces acting on atoms (cartesian axes, Ry/au):

     atom    1 type  1   force =     0.00000000    0.00000000    0.00000000
     The non-local contrib.  to forces
     atom    1 type  1   force =    -0.00000000   -0.00000000   -0.00000000
     The ionic contribution  to forces
     atom    1 type  1   force =    -0.00000000   -0.00000000   -0.00000000
     The local contribution  to forces
     atom    1 type  1   force =     0.00000000   -0.00000000    0.00000000
     The core correction contribution to forces
     atom    1 type  1   force =     0.00000000    0.00000000    0.00000000
     The Hubbard contrib.    to forces
     atom    1 type  1   force =     0.00000000    0.00000000    0.00000000
     The SCF correction term to forces
     atom    1 type  1   force =     0.00000000    0.00000000   -0.00000000

     Total force =     0.000000     Total SCF correction =     0.000000


     Computing stress (Cartesian axis) and pressure

          total   stress  (Ry/bohr**3)                   (kbar)     P=       -2.01
  -0.00001363  -0.00000000  -0.00000000           -2.01       -0.00       -0.00
  -0.00000000  -0.00001363   0.00000000           -0.00       -2.01        0.00
  -0.00000000   0.00000000  -0.00001363           -0.00        0.00       -2.01


     Writing all to output data dir ./tmp/al.save/

     init_run     :      0.15s CPU      0.17s WALL (       2 calls)
     electrons    :      4.83s CPU      5.12s WALL (       6 calls)
     update_pot   :      0.03s CPU      0.03s WALL (       4 calls)
     forces       :      0.05s CPU      0.06s WALL (       6 calls)
     stress       :      0.29s CPU      0.30s WALL (       6 calls)

     Called by init_run:
     wfcinit      :      0.12s CPU      0.13s WALL (       2 calls)
     potinit      :      0.01s CPU      0.01s WALL (       2 calls)
     hinit0       :      0.03s CPU      0.03s WALL (       2 calls)

     Called by electrons:
     c_bands      :      4.12s CPU      4.36s WALL (      26 calls)
     sum_band     :      0.70s CPU      0.74s WALL (      26 calls)
     v_of_rho     :      0.01s CPU      0.01s WALL (      29 calls)
     mix_rho      :      0.00s CPU      0.00s WALL (      26 calls)

     Called by c_bands:
     init_us_2    :      0.16s CPU      0.17s WALL (    7260 calls)
     init_us_2:cp :      0.15s CPU      0.16s WALL (    7260 calls)
     cegterg      :      4.00s CPU      4.24s WALL (    2860 calls)

     Called by *egterg:
     cdiaghg      :      0.36s CPU      0.39s WALL (    8192 calls)
     h_psi        :      3.22s CPU      3.41s WALL (    9182 calls)
     g_psi        :      0.03s CPU      0.03s WALL (    6102 calls)

     Called by h_psi:
     h_psi:calbec :      0.06s CPU      0.07s WALL (    9182 calls)
     vloc_psi     :      3.06s CPU      3.24s WALL (    9182 calls)
     add_vuspsi   :      0.05s CPU      0.05s WALL (    9182 calls)

     General routines
     calbec       :      0.07s CPU      0.07s WALL (   12482 calls)
     fft          :      0.01s CPU      0.01s WALL (     118 calls)
     ffts         :      0.00s CPU      0.00s WALL (      26 calls)
     fftw         :      3.16s CPU      3.36s WALL (  108208 calls)

     Parallel routines

     PWSCF        :      5.42s CPU      5.76s WALL


   This run was terminated on:  13:18:56   2Jun2023            

=------------------------------------------------------------------------------=
   JOB DONE.
=------------------------------------------------------------------------------=
