
     Program PWSCF v.7.0 starts on  6Jun2023 at 23:12:58 

     This program is part of the open-source Quantum ESPRESSO suite
     for quantum simulation of materials; please cite
         "P. Giannozzi et al., J. Phys.:Condens. Matter 21 395502 (2009);
         "P. Giannozzi et al., J. Phys.:Condens. Matter 29 465901 (2017);
         "P. Giannozzi et al., J. Chem. Phys. 152 154105 (2020);
          URL http://www.quantum-espresso.org", 
     in publications or presentations arising from this work. More details at
     http://www.quantum-espresso.org/quote

     Parallel version (MPI), running on     1 processors

     MPI processes distributed on     1 nodes
     10209 MiB available memory on the printing compute node when the environment starts

     Waiting for input...
     Reading input from standard input

     Current dimensions of program PWSCF are:
     Max number of different atomic species (ntypx) = 10
     Max number of k-points (npk) =  40000
     Max angular momentum in pseudopotentials (lmaxx) =  4

     Atomic positions and unit cell read from directory:
     ./tmp/al.save/


     Subspace diagonalization in iterative solution of the eigenvalue problem:
     a serial algorithm will be used


     G-vector sticks info
     --------------------
     sticks:   dense  smooth     PW     G-vecs:    dense   smooth      PW
     Sum         121     121     43                  893      893     181

     Using Slab Decomposition



     bravais-lattice index     =            2
     lattice parameter (alat)  =       7.4610  a.u.
     unit-cell volume          =     103.8320 (a.u.)^3
     number of atoms/cell      =            1
     number of atomic types    =            1
     number of electrons       =         3.00
     number of Kohn-Sham states=           10
     kinetic-energy cutoff     =      16.0000  Ry
     charge density cutoff     =      64.0000  Ry
     Exchange-correlation= SLA  PZ   NOGX NOGC
                           (   1   1   0   0   0   0   0)

     celldm(1)=   7.461000  celldm(2)=   0.000000  celldm(3)=   0.000000
     celldm(4)=   0.000000  celldm(5)=   0.000000  celldm(6)=   0.000000

     crystal axes: (cart. coord. in units of alat)
               a(1) = (  -0.500000   0.000000   0.500000 )  
               a(2) = (   0.000000   0.500000   0.500000 )  
               a(3) = (  -0.500000   0.500000   0.000000 )  

     reciprocal axes: (cart. coord. in units 2 pi/alat)
               b(1) = ( -1.000000 -1.000000  1.000000 )  
               b(2) = (  1.000000  1.000000  1.000000 )  
               b(3) = ( -1.000000  1.000000 -1.000000 )  


     PseudoPot. # 1 for Al read from file:
     ../../pseudo/Al.pz-vbc.UPF
     MD5 check sum: 69dcd8cd7cc1bedf536afd524f174f6a
     Pseudo is Norm-conserving, Zval =  3.0
     Generated by new atomic code, or converted to UPF format
     Using radial grid of  171 points,  2 beta functions with: 
                l(1) =   0
                l(2) =   1

     atomic species   valence    mass     pseudopotential
        Al             3.00    26.98000     Al( 1.00)

     48 Sym. Ops., with inversion, found



   Cartesian axes

     site n.     atom                  positions (alat units)
         1           Al  tau(   1) = (   0.0000000   0.0000000   0.0000000  )

     number of k points=    91  Marzari-Vanderbilt smearing, width (Ry)=  0.0500
                       cart. coord. in units 2pi/alat
        k(    1) = (   0.5000000   0.5000000   0.5000000), wk =   0.0219780
        k(    2) = (   0.4750000   0.4750000   0.4750000), wk =   0.0219780
        k(    3) = (   0.4500000   0.4500000   0.4500000), wk =   0.0219780
        k(    4) = (   0.4250000   0.4250000   0.4250000), wk =   0.0219780
        k(    5) = (   0.4000000   0.4000000   0.4000000), wk =   0.0219780
        k(    6) = (   0.3750000   0.3750000   0.3750000), wk =   0.0219780
        k(    7) = (   0.3500000   0.3500000   0.3500000), wk =   0.0219780
        k(    8) = (   0.3250000   0.3250000   0.3250000), wk =   0.0219780
        k(    9) = (   0.3000000   0.3000000   0.3000000), wk =   0.0219780
        k(   10) = (   0.2750000   0.2750000   0.2750000), wk =   0.0219780
        k(   11) = (   0.2500000   0.2500000   0.2500000), wk =   0.0219780
        k(   12) = (   0.2250000   0.2250000   0.2250000), wk =   0.0219780
        k(   13) = (   0.2000000   0.2000000   0.2000000), wk =   0.0219780
        k(   14) = (   0.1750000   0.1750000   0.1750000), wk =   0.0219780
        k(   15) = (   0.1500000   0.1500000   0.1500000), wk =   0.0219780
        k(   16) = (   0.1250000   0.1250000   0.1250000), wk =   0.0219780
        k(   17) = (   0.1000000   0.1000000   0.1000000), wk =   0.0219780
        k(   18) = (   0.0750000   0.0750000   0.0750000), wk =   0.0219780
        k(   19) = (   0.0500000   0.0500000   0.0500000), wk =   0.0219780
        k(   20) = (   0.0250000   0.0250000   0.0250000), wk =   0.0219780
        k(   21) = (   0.0000000   0.0000000   0.0000000), wk =   0.0219780
        k(   22) = (   0.0333333   0.0000000   0.0000000), wk =   0.0219780
        k(   23) = (   0.0666667   0.0000000   0.0000000), wk =   0.0219780
        k(   24) = (   0.1000000   0.0000000   0.0000000), wk =   0.0219780
        k(   25) = (   0.1333333   0.0000000   0.0000000), wk =   0.0219780
        k(   26) = (   0.1666667   0.0000000   0.0000000), wk =   0.0219780
        k(   27) = (   0.2000000   0.0000000   0.0000000), wk =   0.0219780
        k(   28) = (   0.2333333   0.0000000   0.0000000), wk =   0.0219780
        k(   29) = (   0.2666667   0.0000000   0.0000000), wk =   0.0219780
        k(   30) = (   0.3000000   0.0000000   0.0000000), wk =   0.0219780
        k(   31) = (   0.3333333   0.0000000   0.0000000), wk =   0.0219780
        k(   32) = (   0.3666667   0.0000000   0.0000000), wk =   0.0219780
        k(   33) = (   0.4000000   0.0000000   0.0000000), wk =   0.0219780
        k(   34) = (   0.4333333   0.0000000   0.0000000), wk =   0.0219780
        k(   35) = (   0.4666667   0.0000000   0.0000000), wk =   0.0219780
        k(   36) = (   0.5000000   0.0000000   0.0000000), wk =   0.0219780
        k(   37) = (   0.5333333   0.0000000   0.0000000), wk =   0.0219780
        k(   38) = (   0.5666667   0.0000000   0.0000000), wk =   0.0219780
        k(   39) = (   0.6000000   0.0000000   0.0000000), wk =   0.0219780
        k(   40) = (   0.6333333   0.0000000   0.0000000), wk =   0.0219780
        k(   41) = (   0.6666667   0.0000000   0.0000000), wk =   0.0219780
        k(   42) = (   0.7000000   0.0000000   0.0000000), wk =   0.0219780
        k(   43) = (   0.7333333   0.0000000   0.0000000), wk =   0.0219780
        k(   44) = (   0.7666667   0.0000000   0.0000000), wk =   0.0219780
        k(   45) = (   0.8000000   0.0000000   0.0000000), wk =   0.0219780
        k(   46) = (   0.8333333   0.0000000   0.0000000), wk =   0.0219780
        k(   47) = (   0.8666667   0.0000000   0.0000000), wk =   0.0219780
        k(   48) = (   0.9000000   0.0000000   0.0000000), wk =   0.0219780
        k(   49) = (   0.9333333   0.0000000   0.0000000), wk =   0.0219780
        k(   50) = (   0.9666667   0.0000000   0.0000000), wk =   0.0219780
        k(   51) = (   1.0000000   0.0000000   0.0000000), wk =   0.0219780
        k(   52) = (   1.0000000   0.0250000   0.0250000), wk =   0.0219780
        k(   53) = (   1.0000000   0.0500000   0.0500000), wk =   0.0219780
        k(   54) = (   1.0000000   0.0750000   0.0750000), wk =   0.0219780
        k(   55) = (   1.0000000   0.1000000   0.1000000), wk =   0.0219780
        k(   56) = (   1.0000000   0.1250000   0.1250000), wk =   0.0219780
        k(   57) = (   1.0000000   0.1500000   0.1500000), wk =   0.0219780
        k(   58) = (   1.0000000   0.1750000   0.1750000), wk =   0.0219780
        k(   59) = (   1.0000000   0.2000000   0.2000000), wk =   0.0219780
        k(   60) = (   1.0000000   0.2250000   0.2250000), wk =   0.0219780
        k(   61) = (   1.0000000   0.2500000   0.2500000), wk =   0.0219780
        k(   62) = (   0.9666667   0.2416667   0.2416667), wk =   0.0219780
        k(   63) = (   0.9333333   0.2333333   0.2333333), wk =   0.0219780
        k(   64) = (   0.9000000   0.2250000   0.2250000), wk =   0.0219780
        k(   65) = (   0.8666667   0.2166667   0.2166667), wk =   0.0219780
        k(   66) = (   0.8333333   0.2083333   0.2083333), wk =   0.0219780
        k(   67) = (   0.8000000   0.2000000   0.2000000), wk =   0.0219780
        k(   68) = (   0.7666667   0.1916667   0.1916667), wk =   0.0219780
        k(   69) = (   0.7333333   0.1833333   0.1833333), wk =   0.0219780
        k(   70) = (   0.7000000   0.1750000   0.1750000), wk =   0.0219780
        k(   71) = (   0.6666667   0.1666667   0.1666667), wk =   0.0219780
        k(   72) = (   0.6333333   0.1583333   0.1583333), wk =   0.0219780
        k(   73) = (   0.6000000   0.1500000   0.1500000), wk =   0.0219780
        k(   74) = (   0.5666667   0.1416667   0.1416667), wk =   0.0219780
        k(   75) = (   0.5333333   0.1333333   0.1333333), wk =   0.0219780
        k(   76) = (   0.5000000   0.1250000   0.1250000), wk =   0.0219780
        k(   77) = (   0.4666667   0.1166667   0.1166667), wk =   0.0219780
        k(   78) = (   0.4333333   0.1083333   0.1083333), wk =   0.0219780
        k(   79) = (   0.4000000   0.1000000   0.1000000), wk =   0.0219780
        k(   80) = (   0.3666667   0.0916667   0.0916667), wk =   0.0219780
        k(   81) = (   0.3333333   0.0833333   0.0833333), wk =   0.0219780
        k(   82) = (   0.3000000   0.0750000   0.0750000), wk =   0.0219780
        k(   83) = (   0.2666667   0.0666667   0.0666667), wk =   0.0219780
        k(   84) = (   0.2333333   0.0583333   0.0583333), wk =   0.0219780
        k(   85) = (   0.2000000   0.0500000   0.0500000), wk =   0.0219780
        k(   86) = (   0.1666667   0.0416667   0.0416667), wk =   0.0219780
        k(   87) = (   0.1333333   0.0333333   0.0333333), wk =   0.0219780
        k(   88) = (   0.1000000   0.0250000   0.0250000), wk =   0.0219780
        k(   89) = (   0.0666667   0.0166667   0.0166667), wk =   0.0219780
        k(   90) = (   0.0333333   0.0083333   0.0083333), wk =   0.0219780
        k(   91) = (   0.0000000   0.0000000   0.0000000), wk =   0.0219780

     Dense  grid:      893 G-vectors     FFT dimensions: (  15,  15,  15)

     Estimated max dynamical RAM per process >       0.51 MB

     The potential is recalculated from file :
     ./tmp/al.save/charge-density

     Starting wfcs are    4 randomized atomic wfcs +    6 random wfcs

     Band Structure Calculation
     Davidson diagonalization with overlap

     ethr =  3.33E-08,  avg # of iterations = 16.8

     total cpu time spent up to now is        0.8 secs

     End of band structure calculation

          k = 0.5000 0.5000 0.5000 (   108 PWs)   bands (ev):

     3.6986   3.9606  20.2076  20.2076  20.2251  20.2251  23.9811  24.3521
    34.8547  34.8547

          k = 0.4750 0.4750 0.4750 (   108 PWs)   bands (ev):

     3.1580   4.5310  20.0303  20.0303  20.4321  20.4321  23.8848  24.4769
    34.6428  34.6428

          k = 0.4500 0.4500 0.4500 (   114 PWs)   bands (ev):

     2.5333   5.2428  19.8731  19.8731  20.6719  20.6719  23.7266  24.7196
    34.0999  34.0999

          k = 0.4250 0.4250 0.4250 (   114 PWs)   bands (ev):

     1.9374   5.9877  19.7462  19.7462  20.9464  20.9464  23.5798  25.0078
    33.3874  33.3874

          k = 0.4000 0.4000 0.4000 (   114 PWs)   bands (ev):

     1.3716   6.7621  19.6487  19.6487  21.2505  21.2505  23.4567  25.3273
    32.6022  32.6022

          k = 0.3750 0.3750 0.3750 (   114 PWs)   bands (ev):

     0.8370   7.5649  19.5804  19.5804  21.5838  21.5838  23.3601  25.6736
    31.7944  31.7944

          k = 0.3500 0.3500 0.3500 (   114 PWs)   bands (ev):

     0.3342   8.3954  19.5412  19.5412  21.9461  21.9461  23.2908  26.0439
    30.9892  30.9892

          k = 0.3250 0.3250 0.3250 (   111 PWs)   bands (ev):

    -0.1361   9.2543  19.5324  19.5324  22.3366  22.3366  23.2505  26.4369
    30.2030  30.2030

          k = 0.3000 0.3000 0.3000 (   114 PWs)   bands (ev):

    -0.5747  10.1378  19.5489  19.5489  22.7529  22.7529  23.2323  26.8482
    29.4338  29.4338

          k = 0.2750 0.2750 0.2750 (   114 PWs)   bands (ev):

    -0.9790  11.0474  19.5958  19.5958  23.1941  23.1941  23.2391  27.2764
    28.7013  28.7013

          k = 0.2500 0.2500 0.2500 (   113 PWs)   bands (ev):

    -1.3495  11.9822  19.6712  19.6712  23.2695  23.6545  23.6545  27.7214
    28.0072  28.0072

          k = 0.2250 0.2250 0.2250 (   116 PWs)   bands (ev):

    -1.6871  12.9387  19.7741  19.7741  23.3156  24.1226  24.1226  27.3630
    27.3630  28.1734

          k = 0.2000 0.2000 0.2000 (   122 PWs)   bands (ev):

    -1.9911  13.9171  19.9028  19.9028  23.3763  24.5658  24.5658  26.7981
    26.7981  28.6314

          k = 0.1750 0.1750 0.1750 (   116 PWs)   bands (ev):

    -2.2583  14.9219  20.0613  20.0613  23.4464  24.8905  24.8905  26.4209
    26.4209  29.0914

          k = 0.1500 0.1500 0.1500 (   116 PWs)   bands (ev):

    -2.4907  15.9418  20.2447  20.2447  23.5183  24.8627  24.8627  26.4414
    26.4414  29.5453

          k = 0.1250 0.1250 0.1250 (   116 PWs)   bands (ev):

    -2.6878  16.9760  20.4521  20.4521  23.5815  24.5231  24.5231  26.8222
    26.8222  28.9855

          k = 0.1000 0.1000 0.1000 (   116 PWs)   bands (ev):

    -2.8494  18.0183  20.6796  20.6796  23.6202  24.0974  24.0974  27.3287
    27.3287  27.9556

          k = 0.0750 0.0750 0.0750 (   113 PWs)   bands (ev):

    -2.9751  19.0569  20.9199  20.9199  23.6120  23.6784  23.6784  26.9713
    27.8541  27.8541

          k = 0.0500 0.0500 0.0500 (   113 PWs)   bands (ev):

    -3.0651  20.0652  21.1566  21.1566  23.3061  23.3061  23.4858  26.1154
    28.3306  28.3306

          k = 0.0250 0.0250 0.0250 (   113 PWs)   bands (ev):

    -3.1192  20.9665  21.3521  21.3521  23.0271  23.0271  23.1822  25.5334
    28.6814  28.6814

          k = 0.0000 0.0000 0.0000 (   113 PWs)   bands (ev):

    -3.1372  21.4343  21.4343  21.4343  22.9169  22.9169  22.9169  25.3362
    28.8142  28.8142

          k = 0.0333 0.0000 0.0000 (   113 PWs)   bands (ev):

    -3.1265  21.2751  21.2751  21.3426  22.8936  23.0922  23.0922  25.4491
    28.6440  28.8243

          k = 0.0667 0.0000 0.0000 (   113 PWs)   bands (ev):

    -3.0945  20.9226  20.9226  21.0944  22.8250  23.4933  23.4933  25.7609
    28.1708  28.8545

          k = 0.1000 0.0000 0.0000 (   113 PWs)   bands (ev):

    -3.0411  20.5086  20.5086  20.7437  22.7144  23.9877  23.9877  26.2176
    27.4868  28.9049

          k = 0.1333 0.0000 0.0000 (   113 PWs)   bands (ev):

    -2.9665  20.0811  20.0811  20.3367  22.5667  24.5271  24.5271  26.6820
    26.7731  28.9753

          k = 0.1667 0.0000 0.0000 (   113 PWs)   bands (ev):

    -2.8706  19.6567  19.6567  19.9033  22.3879  25.0938  25.0938  25.8142
    27.3974  29.0658

          k = 0.2000 0.0000 0.0000 (   117 PWs)   bands (ev):

    -2.7536  19.2421  19.2421  19.4593  22.1780  24.9153  25.6768  25.6768
    28.0731  29.1762

          k = 0.2333 0.0000 0.0000 (   117 PWs)   bands (ev):

    -2.6154  18.8409  18.8409  19.0182  21.9539  24.0034  26.2769  26.2769
    28.7898  29.3065

          k = 0.2667 0.0000 0.0000 (   117 PWs)   bands (ev):

    -2.4562  18.4547  18.4547  18.5848  21.7155  23.0884  26.8879  26.8879
    29.4566  29.5412

          k = 0.3000 0.0000 0.0000 (   117 PWs)   bands (ev):

    -2.2761  18.0845  18.0845  18.1630  21.4675  22.1767  27.5063  27.5063
    29.6263  30.3234

          k = 0.3333 0.0000 0.0000 (   113 PWs)   bands (ev):

    -2.0740  17.7320  17.7320  17.7555  21.2143  21.2759  28.1299  28.1299
    29.8157  31.1336

          k = 0.3667 0.0000 0.0000 (   113 PWs)   bands (ev):

    -1.8524  17.3640  17.3952  17.3952  20.3805  20.9585  28.7529  28.7529
    30.0240  31.9702

          k = 0.4000 0.0000 0.0000 (   121 PWs)   bands (ev):

    -1.6108  16.9850  17.0747  17.0747  19.4927  20.7019  29.3627  29.3627
    30.2467  32.8318

          k = 0.4333 0.0000 0.0000 (   121 PWs)   bands (ev):

    -1.3484  16.6288  16.7723  16.7723  18.6219  20.4500  29.9746  29.9746
    30.4925  33.7176

          k = 0.4667 0.0000 0.0000 (   125 PWs)   bands (ev):

    -1.0658  16.2913  16.4872  16.4872  17.7647  20.1921  30.5740  30.5740
    30.7565  34.6270

          k = 0.5000 0.0000 0.0000 (   125 PWs)   bands (ev):

    -0.7632  15.9731  16.2196  16.2196  16.9223  19.9523  31.0382  31.1599
    31.1599  35.5594

          k = 0.5333 0.0000 0.0000 (   125 PWs)   bands (ev):

    -0.4408  15.6744  15.9696  15.9696  16.0949  19.7216  31.3370  31.7288
    31.7288  36.5144

          k = 0.5667 0.0000 0.0000 (   113 PWs)   bands (ev):

    -0.0945  15.2853  15.3958  15.7444  15.7444  19.5019  31.6666  32.2875
    32.2875  37.2256

          k = 0.6000 0.0000 0.0000 (   113 PWs)   bands (ev):

     0.2667  14.4889  15.1370  15.5287  15.5287  19.2935  31.9966  32.8189
    32.8189  37.7809

          k = 0.6333 0.0000 0.0000 (   113 PWs)   bands (ev):

     0.6469  13.7085  14.8986  15.3305  15.3305  19.0980  32.3405  33.3322
    33.3322  38.3373

          k = 0.6667 0.0000 0.0000 (   113 PWs)   bands (ev):

     1.0458  12.9445  14.6806  15.1498  15.1498  18.9163  32.6966  33.8285
    33.8285  38.8901

          k = 0.7000 0.0000 0.0000 (   113 PWs)   bands (ev):

     1.4632  12.1972  14.4830  14.9864  14.9864  18.7494  33.0624  34.3094
    34.3094  39.4340

          k = 0.7333 0.0000 0.0000 (   113 PWs)   bands (ev):

     1.8984  11.4670  14.3061  14.8404  14.8404  18.5981  33.4348  34.7758
    34.7758  39.9624

          k = 0.7667 0.0000 0.0000 (   112 PWs)   bands (ev):

     2.3514  10.7550  14.1498  14.7116  14.7116  18.4634  33.8095  35.2275
    35.2275  40.4745

          k = 0.8000 0.0000 0.0000 (   112 PWs)   bands (ev):

     2.8203  10.0608  14.0143  14.6002  14.6002  18.3452  34.1802  35.6626
    35.6626  40.9484

          k = 0.8333 0.0000 0.0000 (   112 PWs)   bands (ev):

     3.3041   9.3865  13.8996  14.5060  14.5060  18.2443  34.5385  36.0764
    36.0764  41.3811

          k = 0.8667 0.0000 0.0000 (   116 PWs)   bands (ev):

     3.8003   8.7327  13.8037  14.4281  14.4281  18.1604  34.8728  36.4523
    36.4523  41.7613

          k = 0.9000 0.0000 0.0000 (   116 PWs)   bands (ev):

     4.3033   8.1086  13.7306  14.3681  14.3681  18.0954  35.1671  36.7921
    36.7921  42.0780

          k = 0.9333 0.0000 0.0000 (   116 PWs)   bands (ev):

     4.7990   7.5263  13.6784  14.3253  14.3253  18.0488  35.4015  37.0667
    37.0667  42.1123

          k = 0.9667 0.0000 0.0000 (   116 PWs)   bands (ev):

     5.2409   7.0326  13.6471  14.2996  14.2996  18.0208  35.5545  37.2491
    37.2491  41.9301

          k = 1.0000 0.0000 0.0000 (   116 PWs)   bands (ev):

     5.4573   6.7989  13.6366  14.2911  14.2911  18.0114  35.6079  37.3136
    37.3136  41.8642

          k = 1.0000 0.0250 0.0250 (   116 PWs)   bands (ev):

     5.4677   6.8103  13.2629  14.3008  14.5905  18.1146  35.5141  37.1773
    37.2063  41.7562

          k = 1.0000 0.0500 0.0500 (   114 PWs)   bands (ev):

     5.4995   6.8450  12.6418  14.3300  14.9960  18.4190  35.2512  36.8099
    36.9149  41.4629

          k = 1.0000 0.0750 0.0750 (   114 PWs)   bands (ev):

     5.5519   6.9014  11.9672  14.3786  15.3324  18.9017  34.8621  36.2919
    36.4846  41.0395

          k = 1.0000 0.1000 0.1000 (   114 PWs)   bands (ev):

     5.6252   6.9796  11.2750  14.4468  15.6029  19.5257  34.3904  35.6885
    35.9728  40.5387

          k = 1.0000 0.1250 0.1250 (   114 PWs)   bands (ev):

     5.7195   7.0785  10.5803  14.5344  15.8324  20.2518  33.8699  35.0403
    35.4158  39.9939

          k = 1.0000 0.1500 0.1500 (   110 PWs)   bands (ev):

     5.8349   7.1980   9.8947  14.6420  16.0446  21.0493  33.3267  34.3709
    34.8378  39.4271

          k = 1.0000 0.1750 0.1750 (   110 PWs)   bands (ev):

     5.9713   7.3266   9.2261  14.7688  16.2517  21.8969  32.7691  33.6942
    34.2500  38.8478

          k = 1.0000 0.2000 0.2000 (   110 PWs)   bands (ev):

     6.1288   7.4418   8.6044  14.9152  16.4644  22.7809  32.2105  33.0189
    33.6631  38.2669

          k = 1.0000 0.2250 0.2250 (   110 PWs)   bands (ev):

     6.3074   7.4117   8.1635  15.0814  16.6881  23.6913  31.6575  32.3507
    33.0828  37.6911

          k = 1.0000 0.2500 0.2500 (   110 PWs)   bands (ev):

     6.5072   7.0012   8.1399  15.2674  16.9262  24.6200  31.1144  31.6934
    32.5130  37.1260

          k = 0.9667 0.2417 0.2417 (   110 PWs)   bands (ev):

     6.2279   7.2406   8.2783  15.2118  16.8550  24.3166  30.9915  32.2254
    32.6563  37.3207

          k = 0.9333 0.2333 0.2333 (   110 PWs)   bands (ev):

     5.7358   7.5227   8.6473  15.1757  16.8054  24.0306  30.7125  32.7140
    32.9361  37.5103

          k = 0.9000 0.2250 0.2250 (   110 PWs)   bands (ev):

     5.1876   7.8150   9.1224  15.1590  16.7776  23.7627  30.4300  32.6985
    33.6647  37.6136

          k = 0.8667 0.2167 0.2167 (   108 PWs)   bands (ev):

     4.6298   8.1199   9.6560  15.1625  16.7714  23.5144  30.1629  32.6262
    34.3819  37.5098

          k = 0.8333 0.2083 0.2083 (   110 PWs)   bands (ev):

     4.0773   8.4394  10.2263  15.1830  16.7862  23.2843  29.9035  32.5107
    35.0569  37.1535

          k = 0.8000 0.2000 0.2000 (   110 PWs)   bands (ev):

     3.5383   8.7778  10.8260  15.2244  16.8226  23.0738  29.6662  32.3664
    35.6476  36.6250

          k = 0.7667 0.1917 0.1917 (   110 PWs)   bands (ev):

     3.0152   9.1349  11.4507  15.2853  16.8799  22.8831  29.4468  32.1990
    36.0184  36.0821

          k = 0.7333 0.1833 0.1833 (   113 PWs)   bands (ev):

     2.5084   9.5100  12.0969  15.3651  16.9573  22.7119  29.2443  32.0096
    35.3828  36.2715

          k = 0.7000 0.1750 0.1750 (   113 PWs)   bands (ev):

     2.0218   9.9056  12.7650  15.4649  17.0554  22.5614  29.0606  31.8002
    34.7658  36.1643

          k = 0.6667 0.1667 0.1667 (   115 PWs)   bands (ev):

     1.5543  10.3193  13.4527  15.5839  17.1725  22.4313  28.8938  31.5625
    34.1829  35.7945

          k = 0.6333 0.1583 0.1583 (   115 PWs)   bands (ev):

     1.1077  10.7535  14.1596  15.7227  17.3098  22.3216  28.7450  31.2857
    33.6546  35.2498

          k = 0.6000 0.1500 0.1500 (   116 PWs)   bands (ev):

     0.6807  11.2058  14.8852  15.8793  17.4662  22.2332  28.6162  30.9571
    33.1986  34.6014

          k = 0.5667 0.1417 0.1417 (   116 PWs)   bands (ev):

     0.2760  11.6784  15.6264  16.0571  17.6420  22.1644  28.4995  30.5699
    32.8256  33.9020

          k = 0.5333 0.1333 0.1333 (   116 PWs)   bands (ev):

    -0.1072  12.1700  16.2544  16.3812  17.8387  22.1160  28.3972  30.1285
    32.5326  33.1777

          k = 0.5000 0.1250 0.1250 (   114 PWs)   bands (ev):

    -0.4686  12.6804  16.4713  17.1405  18.0659  22.0899  28.3068  29.6505
    32.3070  32.4468

          k = 0.4667 0.1167 0.1167 (   114 PWs)   bands (ev):

    -0.8087  13.2097  16.7060  17.8572  18.3653  22.0854  28.2250  29.1432
    31.7174  32.1308

          k = 0.4333 0.1083 0.1083 (   114 PWs)   bands (ev):

    -1.1257  13.7569  16.9619  18.3403  18.9266  22.0968  28.1443  28.6273
    31.0122  31.9884

          k = 0.4000 0.1000 0.1000 (   115 PWs)   bands (ev):

    -1.4210  14.3210  17.2369  18.6392  19.6987  22.1291  28.0513  28.1095
    30.3420  31.8680

          k = 0.3667 0.0917 0.0917 (   117 PWs)   bands (ev):

    -1.6934  14.9027  17.5300  18.9081  20.5220  22.1808  27.5974  27.9178
    29.7359  31.7503

          k = 0.3333 0.0833 0.0833 (   119 PWs)   bands (ev):

    -1.9429  15.5019  17.8433  19.1760  21.3520  22.2633  27.0949  27.6937
    29.2517  31.5774

          k = 0.3000 0.0750 0.0750 (   117 PWs)   bands (ev):

    -2.1685  16.1188  18.1764  19.4479  22.0747  22.4865  26.6046  27.3292
    28.9412  31.0765

          k = 0.2667 0.0667 0.0667 (   119 PWs)   bands (ev):

    -2.3715  16.7491  18.5272  19.7225  22.3198  23.2061  26.1264  26.8344
    28.7832  30.2698

          k = 0.2333 0.0583 0.0583 (   118 PWs)   bands (ev):

    -2.5504  17.3936  18.8967  20.0008  22.4362  24.0714  25.6635  26.2731
    28.7200  29.4228

          k = 0.2000 0.0500 0.0500 (   116 PWs)   bands (ev):

    -2.7057  18.0497  19.2835  20.2782  22.5397  24.9477  25.2237  25.6896
    28.5891  28.7071

          k = 0.1667 0.0417 0.0417 (   114 PWs)   bands (ev):

    -2.8373  18.7144  19.6857  20.5498  22.6403  24.7744  25.1089  25.8352
    27.7874  28.7184

          k = 0.1333 0.0333 0.0333 (   113 PWs)   bands (ev):

    -2.9451  19.3804  20.0998  20.8102  22.7310  24.3475  24.5391  26.6862
    27.0384  28.7416

          k = 0.1000 0.0250 0.0250 (   113 PWs)   bands (ev):

    -3.0291  20.0371  20.5193  21.0483  22.8078  23.9226  23.9952  26.3699
    27.4815  28.7683

          k = 0.0667 0.0167 0.0167 (   113 PWs)   bands (ev):

    -3.0892  20.6611  20.9275  21.2478  22.8670  23.4967  23.5003  25.8264
    28.1630  28.7922

          k = 0.0333 0.0083 0.0083 (   113 PWs)   bands (ev):

    -3.1252  21.1898  21.2764  21.3848  22.9042  23.0931  23.1113  25.4642
    28.6404  28.8085

          k = 0.0000 0.0000 0.0000 (   113 PWs)   bands (ev):

    -3.1372  21.4343  21.4343  21.4343  22.9169  22.9169  22.9169  25.3362
    28.8142  28.8142

     Writing all to output data dir ./tmp/al.save/

     init_run     :      0.03s CPU      0.03s WALL (       1 calls)
     electrons    :      0.58s CPU      0.61s WALL (       1 calls)

     Called by init_run:
     wfcinit      :      0.00s CPU      0.00s WALL (       1 calls)
     potinit      :      0.00s CPU      0.00s WALL (       1 calls)
     hinit0       :      0.03s CPU      0.03s WALL (       1 calls)

     Called by electrons:
     c_bands      :      0.57s CPU      0.61s WALL (       1 calls)
     v_of_rho     :      0.00s CPU      0.00s WALL (       1 calls)

     Called by c_bands:
     init_us_2    :      0.00s CPU      0.00s WALL (      91 calls)
     init_us_2:cp :      0.00s CPU      0.00s WALL (      91 calls)
     cegterg      :      0.52s CPU      0.55s WALL (     108 calls)

     Called by *egterg:
     cdiaghg      :      0.14s CPU      0.15s WALL (    1624 calls)
     h_psi        :      0.36s CPU      0.39s WALL (    1732 calls)
     g_psi        :      0.00s CPU      0.00s WALL (    1533 calls)

     Called by h_psi:
     h_psi:calbec :      0.01s CPU      0.01s WALL (    1732 calls)
     vloc_psi     :      0.34s CPU      0.37s WALL (    1732 calls)
     add_vuspsi   :      0.01s CPU      0.01s WALL (    1732 calls)

     General routines
     calbec       :      0.00s CPU      0.00s WALL (    1732 calls)
     fft          :      0.02s CPU      0.02s WALL (       3 calls)
     fftw         :      0.28s CPU      0.29s WALL (   21442 calls)
     davcio       :      0.00s CPU      0.00s WALL (     182 calls)

     Parallel routines

     PWSCF        :      0.77s CPU      0.82s WALL


   This run was terminated on:  23:12:59   6Jun2023            

=------------------------------------------------------------------------------=
   JOB DONE.
=------------------------------------------------------------------------------=
