
     Program PWSCF v.7.0 starts on  6Jun2023 at 23:12:51 

     This program is part of the open-source Quantum ESPRESSO suite
     for quantum simulation of materials; please cite
         "P. Giannozzi et al., J. Phys.:Condens. Matter 21 395502 (2009);
         "P. Giannozzi et al., J. Phys.:Condens. Matter 29 465901 (2017);
         "P. Giannozzi et al., J. Chem. Phys. 152 154105 (2020);
          URL http://www.quantum-espresso.org", 
     in publications or presentations arising from this work. More details at
     http://www.quantum-espresso.org/quote

     Parallel version (MPI), running on     1 processors

     MPI processes distributed on     1 nodes
     10230 MiB available memory on the printing compute node when the environment starts

     Waiting for input...
     Reading input from standard input

     Current dimensions of program PWSCF are:
     Max number of different atomic species (ntypx) = 10
     Max number of k-points (npk) =  40000
     Max angular momentum in pseudopotentials (lmaxx) =  4

     Subspace diagonalization in iterative solution of the eigenvalue problem:
     a serial algorithm will be used


     G-vector sticks info
     --------------------
     sticks:   dense  smooth     PW     G-vecs:    dense   smooth      PW
     Sum         121     121     55                  893      893     259

     Using Slab Decomposition



     bravais-lattice index     =            2
     lattice parameter (alat)  =       7.4610  a.u.
     unit-cell volume          =     103.8320 (a.u.)^3
     number of atoms/cell      =            1
     number of atomic types    =            1
     number of electrons       =         3.00
     number of Kohn-Sham states=           10
     kinetic-energy cutoff     =      16.0000  Ry
     charge density cutoff     =      64.0000  Ry
     scf convergence threshold =      1.0E-06
     mixing beta               =       0.7000
     number of iterations used =            8  plain     mixing
     Exchange-correlation= SLA  PZ   NOGX NOGC
                           (   1   1   0   0   0   0   0)

     celldm(1)=   7.461000  celldm(2)=   0.000000  celldm(3)=   0.000000
     celldm(4)=   0.000000  celldm(5)=   0.000000  celldm(6)=   0.000000

     crystal axes: (cart. coord. in units of alat)
               a(1) = (  -0.500000   0.000000   0.500000 )  
               a(2) = (   0.000000   0.500000   0.500000 )  
               a(3) = (  -0.500000   0.500000   0.000000 )  

     reciprocal axes: (cart. coord. in units 2 pi/alat)
               b(1) = ( -1.000000 -1.000000  1.000000 )  
               b(2) = (  1.000000  1.000000  1.000000 )  
               b(3) = ( -1.000000  1.000000 -1.000000 )  


     PseudoPot. # 1 for Al read from file:
     ../../pseudo/Al.pz-vbc.UPF
     MD5 check sum: 69dcd8cd7cc1bedf536afd524f174f6a
     Pseudo is Norm-conserving, Zval =  3.0
     Generated by new atomic code, or converted to UPF format
     Using radial grid of  171 points,  2 beta functions with: 
                l(1) =   0
                l(2) =   1

     atomic species   valence    mass     pseudopotential
        Al             3.00    26.98000     Al( 1.00)

     48 Sym. Ops., with inversion, found



   Cartesian axes

     site n.     atom                  positions (alat units)
         1           Al  tau(   1) = (   0.0000000   0.0000000   0.0000000  )

     number of k points=    60  Marzari-Vanderbilt smearing, width (Ry)=  0.0500
                       cart. coord. in units 2pi/alat
        k(    1) = (  -0.0625000   0.0625000   0.0625000), wk =   0.0078125
        k(    2) = (  -0.1875000   0.1875000  -0.0625000), wk =   0.0234375
        k(    3) = (  -0.3125000   0.3125000  -0.1875000), wk =   0.0234375
        k(    4) = (  -0.4375000   0.4375000  -0.3125000), wk =   0.0234375
        k(    5) = (   0.4375000  -0.4375000   0.5625000), wk =   0.0234375
        k(    6) = (   0.3125000  -0.3125000   0.4375000), wk =   0.0234375
        k(    7) = (   0.1875000  -0.1875000   0.3125000), wk =   0.0234375
        k(    8) = (   0.0625000  -0.0625000   0.1875000), wk =   0.0234375
        k(    9) = (  -0.0625000   0.3125000   0.0625000), wk =   0.0234375
        k(   10) = (  -0.1875000   0.4375000  -0.0625000), wk =   0.0468750
        k(   11) = (  -0.3125000   0.5625000  -0.1875000), wk =   0.0468750
        k(   12) = (   0.5625000  -0.3125000   0.6875000), wk =   0.0468750
        k(   13) = (   0.4375000  -0.1875000   0.5625000), wk =   0.0468750
        k(   14) = (   0.3125000  -0.0625000   0.4375000), wk =   0.0468750
        k(   15) = (   0.1875000   0.0625000   0.3125000), wk =   0.0468750
        k(   16) = (  -0.0625000   0.5625000   0.0625000), wk =   0.0234375
        k(   17) = (  -0.1875000   0.6875000  -0.0625000), wk =   0.0468750
        k(   18) = (   0.6875000  -0.1875000   0.8125000), wk =   0.0468750
        k(   19) = (   0.5625000  -0.0625000   0.6875000), wk =   0.0468750
        k(   20) = (   0.4375000   0.0625000   0.5625000), wk =   0.0468750
        k(   21) = (   0.3125000   0.1875000   0.4375000), wk =   0.0468750
        k(   22) = (  -0.0625000   0.8125000   0.0625000), wk =   0.0234375
        k(   23) = (   0.8125000  -0.0625000   0.9375000), wk =   0.0468750
        k(   24) = (   0.6875000   0.0625000   0.8125000), wk =   0.0468750
        k(   25) = (   0.5625000   0.1875000   0.6875000), wk =   0.0468750
        k(   26) = (   0.4375000   0.3125000   0.5625000), wk =   0.0468750
        k(   27) = (  -0.0625000  -0.9375000   0.0625000), wk =   0.0234375
        k(   28) = (  -0.1875000  -0.8125000  -0.0625000), wk =   0.0468750
        k(   29) = (  -0.3125000  -0.6875000  -0.1875000), wk =   0.0468750
        k(   30) = (  -0.0625000  -0.6875000   0.0625000), wk =   0.0234375
        k(   31) = (  -0.1875000  -0.5625000  -0.0625000), wk =   0.0468750
        k(   32) = (  -0.0625000  -0.4375000   0.0625000), wk =   0.0234375
        k(   33) = (  -0.1875000   0.1875000   0.1875000), wk =   0.0078125
        k(   34) = (  -0.3125000   0.3125000   0.0625000), wk =   0.0234375
        k(   35) = (  -0.4375000   0.4375000  -0.0625000), wk =   0.0234375
        k(   36) = (   0.4375000  -0.4375000   0.8125000), wk =   0.0234375
        k(   37) = (   0.3125000  -0.3125000   0.6875000), wk =   0.0234375
        k(   38) = (   0.1875000  -0.1875000   0.5625000), wk =   0.0234375
        k(   39) = (  -0.1875000   0.4375000   0.1875000), wk =   0.0234375
        k(   40) = (  -0.3125000   0.5625000   0.0625000), wk =   0.0468750
        k(   41) = (   0.5625000  -0.3125000   0.9375000), wk =   0.0468750
        k(   42) = (   0.4375000  -0.1875000   0.8125000), wk =   0.0468750
        k(   43) = (   0.3125000  -0.0625000   0.6875000), wk =   0.0468750
        k(   44) = (  -0.1875000   0.6875000   0.1875000), wk =   0.0234375
        k(   45) = (   0.6875000  -0.1875000   1.0625000), wk =   0.0468750
        k(   46) = (   0.5625000  -0.0625000   0.9375000), wk =   0.0468750
        k(   47) = (   0.4375000   0.0625000   0.8125000), wk =   0.0468750
        k(   48) = (  -0.1875000  -1.0625000   0.1875000), wk =   0.0234375
        k(   49) = (  -0.3125000  -0.9375000   0.0625000), wk =   0.0468750
        k(   50) = (  -0.1875000  -0.8125000   0.1875000), wk =   0.0234375
        k(   51) = (  -0.3125000   0.3125000   0.3125000), wk =   0.0078125
        k(   52) = (  -0.4375000   0.4375000   0.1875000), wk =   0.0234375
        k(   53) = (   0.4375000  -0.4375000   1.0625000), wk =   0.0234375
        k(   54) = (   0.3125000  -0.3125000   0.9375000), wk =   0.0234375
        k(   55) = (  -0.3125000   0.5625000   0.3125000), wk =   0.0234375
        k(   56) = (   0.5625000  -0.3125000   1.1875000), wk =   0.0468750
        k(   57) = (   0.4375000  -0.1875000   1.0625000), wk =   0.0468750
        k(   58) = (  -0.3125000  -1.1875000   0.3125000), wk =   0.0234375
        k(   59) = (  -0.4375000   0.4375000   0.4375000), wk =   0.0078125
        k(   60) = (   0.4375000  -0.4375000   1.3125000), wk =   0.0234375

     Dense  grid:      893 G-vectors     FFT dimensions: (  15,  15,  15)

     Estimated max dynamical RAM per process >       1.79 MB

     Initial potential from superposition of free atoms

     starting charge       2.9979, renormalised to       3.0000
     Starting wfcs are    4 randomized atomic wfcs +    6 random wfcs

     total cpu time spent up to now is        0.1 secs

     per-process dynamical memory:    20.5 Mb

     Self-consistent Calculation

     iteration #  1     ecut=    16.00 Ry     beta= 0.70
     Davidson diagonalization with overlap
     ethr =  1.00E-02,  avg # of iterations =  5.7

     Threshold (ethr) on eigenvalues was too large:
     Diagonalizing with lowered threshold

     Davidson diagonalization with overlap
     ethr =  1.96E-04,  avg # of iterations =  1.2

     total cpu time spent up to now is        0.4 secs

     total energy              =      -4.18788458 Ry
     estimated scf accuracy    <       0.00585705 Ry

     iteration #  2     ecut=    16.00 Ry     beta= 0.70
     Davidson diagonalization with overlap
     ethr =  1.95E-04,  avg # of iterations =  1.0

     total cpu time spent up to now is        0.4 secs

     total energy              =      -4.18788376 Ry
     estimated scf accuracy    <       0.00045546 Ry

     iteration #  3     ecut=    16.00 Ry     beta= 0.70
     Davidson diagonalization with overlap
     ethr =  1.52E-05,  avg # of iterations =  1.5

     total cpu time spent up to now is        0.5 secs

     End of self-consistent calculation

          k =-0.0625 0.0625 0.0625 (   113 PWs)   bands (ev):

    -3.0248  19.5673  21.0401  21.0401  23.4836  23.4836  23.5673  26.5185
    28.1025  28.1027

          k =-0.1875 0.1875-0.0625 (   118 PWs)   bands (ev):

    -2.4269  16.1280  18.4062  21.5845  23.7106  24.1088  25.2409  25.6593
    26.6247  30.3521

          k =-0.3125 0.3125-0.1875 (   111 PWs)   bands (ev):

    -0.9449  11.2796  17.6553  21.0015  22.0543  23.5859  24.0566  27.3069
    28.0531  29.8228

          k =-0.4375 0.4375-0.3125 (   111 PWs)   bands (ev):

     1.3763   6.9833  17.6659  20.0522  21.0634  21.6486  24.2313  26.4823
    31.2702  33.1205

          k = 0.4375-0.4375 0.5625 (   114 PWs)   bands (ev):

     3.3542   4.5090  18.4249  18.8075  20.3647  21.8162  25.0956  25.1920
    33.4962  34.8759

          k = 0.3125-0.3125 0.4375 (   111 PWs)   bands (ev):

     0.5123   8.3430  18.3013  19.7481  20.0138  23.3056  24.5112  26.6429
    29.5351  32.4872

          k = 0.1875-0.1875 0.3125 (   116 PWs)   bands (ev):

    -1.5356  12.8521  18.5216  19.9717  22.1859  24.4681  25.4166  25.6539
    28.9003  29.0057

          k = 0.0625-0.0625 0.1875 (   118 PWs)   bands (ev):

    -2.7255  17.8687  19.4606  20.5375  22.8203  24.8024  25.3171  25.4783
    28.4303  28.5729

          k =-0.0625 0.3125 0.0625 (   117 PWs)   bands (ev):

    -2.1286  16.3232  18.0135  19.1617  21.7803  22.0743  27.0755  27.5997
    29.2076  31.1808

          k =-0.1875 0.4375-0.0625 (   114 PWs)   bands (ev):

    -0.9453  13.2367  15.7580  18.8656  19.8331  22.6606  26.9837  28.3760
    30.5158  32.6050

          k =-0.3125 0.5625-0.1875 (   113 PWs)   bands (ev):

     1.0888   8.8592  15.3934  16.5921  19.9069  24.7522  26.0466  28.6985
    30.4162  34.0404

          k = 0.5625-0.3125 0.6875 (   112 PWs)   bands (ev):

     3.9080   5.0679  14.9063  16.0349  20.4997  23.3371  27.8747  29.6040
    30.7620  33.6457

          k = 0.4375-0.1875 0.5625 (   114 PWs)   bands (ev):

     1.9477   7.5068  14.1896  17.2709  21.7675  22.5824  27.2293  28.8852
    30.6805  33.1758

          k = 0.3125-0.0625 0.4375 (   116 PWs)   bands (ev):

    -0.3602  11.6511  14.3331  19.2971  22.2801  23.7415  24.9385  27.1299
    29.7274  33.0437

          k = 0.1875 0.0625 0.3125 (   116 PWs)   bands (ev):

    -1.8316  14.5614  17.0016  20.9797  21.9952  23.6249  25.8027  26.2057
    28.0346  31.5115

          k =-0.0625 0.5625 0.0625 (   117 PWs)   bands (ev):

    -0.0681  13.9327  15.4522  15.8300  16.8430  20.1178  30.4539  31.7916
    33.0180  35.3510

          k =-0.1875 0.6875-0.0625 (   113 PWs)   bands (ev):

     1.6613  11.3457  12.7801  14.1143  18.0357  21.1567  29.3181  33.2033
    35.3574  36.2841

          k = 0.6875-0.1875 0.8125 (   111 PWs)   bands (ev):

     4.1841   7.4926  11.0036  14.2244  18.6717  24.8992  27.7223  31.9793
    34.1251  35.9108

          k = 0.5625-0.0625 0.6875 (   112 PWs)   bands (ev):

     4.1951   7.3700  10.0974  15.2327  19.8071  26.5060  28.4719  29.5271
    31.4234  35.1277

          k = 0.4375 0.0625 0.5625 (   112 PWs)   bands (ev):

     1.6627   9.2466  11.9907  17.0210  21.6114  24.1792  26.4727  28.9044
    31.4092  34.2985

          k = 0.3125 0.1875 0.4375 (   110 PWs)   bands (ev):

    -0.0677   9.9411  16.4454  19.5282  20.7407  23.8738  25.5964  27.0460
    29.1427  31.6769

          k =-0.0625 0.8125 0.0625 (   113 PWs)   bands (ev):

     3.0700   9.8669  12.6146  14.6236  15.4795  18.9239  33.3238  35.2993
    36.3964  40.6099

          k = 0.8125-0.0625 0.9375 (   111 PWs)   bands (ev):

     5.1970   7.7964  10.5929  13.2833  17.2419  20.4542  32.5248  34.1899
    36.5863  40.6700

          k = 0.6875 0.0625 0.8125 (   107 PWs)   bands (ev):

     5.9939   7.1843   8.7562  13.9597  18.4132  24.7053  29.4102  31.2739
    33.9783  37.7479

          k = 0.5625 0.1875 0.6875 (   112 PWs)   bands (ev):

     4.4604   5.6090  12.3455  15.4945  20.0473  24.8203  28.9354  29.9891
    31.8432  33.0185

          k = 0.4375 0.3125 0.5625 (   112 PWs)   bands (ev):

     2.5156   5.8842  16.6760  17.7690  21.0461  22.1425  26.0840  27.3420
    31.2807  34.4167

          k =-0.0625-0.9375 0.0625 (   115 PWs)   bands (ev):

     4.9262   7.5267  12.3409  14.3818  15.2073  18.6713  34.7487  36.5082
    36.6857  41.4283

          k =-0.1875-0.8125-0.0625 (   111 PWs)   bands (ev):

     3.3504  10.0793  10.9024  13.5497  17.5071  20.6924  30.8348  34.7044
    36.0327  39.1888

          k =-0.3125-0.6875-0.1875 (   113 PWs)   bands (ev):

     2.5135   8.0424  13.5834  14.7860  19.1796  25.1985  26.3229  30.8151
    32.6721  35.2263

          k =-0.0625-0.6875 0.0625 (   113 PWs)   bands (ev):

     1.3759  12.5056  13.1809  15.1067  16.0243  19.4149  31.8215  33.6857
    34.9710  37.9167

          k =-0.1875-0.5625-0.0625 (   116 PWs)   bands (ev):

     0.2226  12.1656  14.6853  15.8471  18.8177  21.8243  28.0258  31.0021
    33.1593  34.0745

          k =-0.0625-0.4375 0.0625 (   117 PWs)   bands (ev):

    -1.2405  15.0046  16.7982  17.8446  18.6304  20.9952  29.2030  29.5224
    30.8587  33.3471

          k =-0.1875 0.1875 0.1875 (   116 PWs)   bands (ev):

    -2.1292  14.4183  19.9789  19.9789  23.4101  24.7575  24.7575  26.5770
    26.5770  28.8616

          k =-0.3125 0.3125 0.0625 (   113 PWs)   bands (ev):

    -1.2400  12.9827  15.5972  21.7210  22.7370  23.7941  25.1151  25.1284
    27.9172  32.1266

          k =-0.4375 0.4375-0.0625 (   115 PWs)   bands (ev):

     0.5123  10.3179  13.0535  19.3019  21.3874  24.3181  26.5117  26.5766
    29.7841  33.7223

          k = 0.4375-0.4375 0.8125 (   109 PWs)   bands (ev):

     3.0804   6.4175  13.1565  17.5716  19.5333  24.6265  27.3063  30.7679
    31.3234  31.9221

          k = 0.3125-0.3125 0.6875 (   115 PWs)   bands (ev):

     3.0768   6.4299  14.1729  16.5771  18.4110  25.6183  27.1450  29.4163
    30.7820  35.1244

          k = 0.1875-0.1875 0.5625 (   113 PWs)   bands (ev):

     0.5126  10.4497  15.9771  16.3237  18.0360  23.6981  27.2945  29.6471
    31.3513  34.1574

          k =-0.1875 0.4375 0.1875 (   113 PWs)   bands (ev):

    -0.6517  11.5239  17.3008  18.8121  19.2534  24.4999  26.2365  27.1200
    29.8625  31.5268

          k =-0.3125 0.5625 0.0625 (   114 PWs)   bands (ev):

     0.8013  10.5809  13.2762  16.3327  21.3897  23.8389  25.0853  29.9325
    32.2576  34.1607

          k = 0.5625-0.3125 0.9375 (   112 PWs)   bands (ev):

     3.0788   8.4405  11.1574  14.2750  22.7007  23.5832  26.0767  31.4725
    32.5814  35.2505

          k = 0.4375-0.1875 0.8125 (   111 PWs)   bands (ev):

     4.9979   6.1575  11.7151  13.0650  21.4396  24.4771  27.5889  30.3268
    33.4522  35.0818

          k = 0.3125-0.0625 0.6875 (   111 PWs)   bands (ev):

     2.2311   9.7731  12.3645  13.5987  20.6475  23.3705  26.1946  32.6090
    34.2868  35.5472

          k =-0.1875 0.6875 0.1875 (   113 PWs)   bands (ev):

     1.9465   9.6335  13.1151  15.5953  17.2255  23.0469  28.5978  31.3984
    34.0838  36.0772

          k = 0.6875-0.1875 1.0625 (   108 PWs)   bands (ev):

     3.9090   9.2153  10.6310  12.1809  20.1354  22.9703  27.6586  33.0410
    35.3039  38.2844

          k = 0.5625-0.0625 0.9375 (   109 PWs)   bands (ev):

     6.5301   7.6124   9.1044  10.6524  22.7660  25.0310  26.1698  28.6808
    36.8477  40.6657

          k = 0.4375 0.0625 0.8125 (   110 PWs)   bands (ev):

     4.7372   7.9004  10.4741  11.8102  22.9906  24.1559  25.7982  30.4044
    34.9265  37.8437

          k =-0.1875-1.0625 0.1875 (   110 PWs)   bands (ev):

     5.4659   7.9934   8.9770  14.8696  16.3918  22.3638  31.8719  33.7892
    33.9930  38.6037

          k =-0.3125-0.9375 0.0625 (   107 PWs)   bands (ev):

     5.7353   8.2711   9.0705  11.8397  19.8762  22.7572  29.3092  31.3871
    36.7191  40.5756

          k =-0.1875-0.8125 0.1875 (   110 PWs)   bands (ev):

     3.6297   9.0561  10.5056  15.1109  16.6723  22.5954  30.1454  32.7676
    35.7221  37.2667

          k =-0.3125 0.3125 0.3125 (   114 PWs)   bands (ev):

    -0.3603   9.6922  19.5360  19.5360  22.5409  22.5409  23.2371  26.6397
    29.8119  29.8120

          k =-0.4375 0.4375 0.1875 (   114 PWs)   bands (ev):

     0.8008   8.5943  15.2276  19.5518  21.5380  22.5748  25.4174  28.7689
    29.3026  32.0311

          k = 0.4375-0.4375 1.0625 (   111 PWs)   bands (ev):

     2.7984   8.1738  10.9220  17.3241  19.2995  26.4188  28.4849  28.4879
    30.7636  34.0948

          k = 0.3125-0.3125 0.9375 (   112 PWs)   bands (ev):

     5.5541   6.5786   9.2819  15.8464  17.6281  26.9825  28.9614  31.0179
    31.0200  35.7497

          k =-0.3125 0.5625 0.3125 (   112 PWs)   bands (ev):

     1.6619   7.2527  16.9994  17.3151  19.1270  24.3312  26.6130  27.8021
    29.2104  34.8886

          k = 0.5625-0.3125 1.1875 (   114 PWs)   bands (ev):

     3.3584   6.6888  13.3245  14.5853  21.8667  23.0623  27.8925  30.2889
    32.3270  33.2989

          k = 0.4375-0.1875 1.0625 (   110 PWs)   bands (ev):

     5.8158   6.8461   9.5237  12.7300  21.2043  26.0419  27.1905  28.9060
    34.4233  37.6777

          k =-0.3125-1.1875 0.3125 (   112 PWs)   bands (ev):

     4.7230   5.8948  11.5546  16.0900  17.8946  27.0928  27.1665  30.2347
    33.2016  34.0221

          k =-0.4375 0.4375 0.4375 (   114 PWs)   bands (ev):

     2.2314   5.6112  19.8057  19.8057  20.8052  20.8052  23.6501  24.8587
    33.7573  33.7573

          k = 0.4375-0.4375 1.3125 (   112 PWs)   bands (ev):

     3.6327   4.7876  15.7247  18.0632  19.9582  23.0908  26.0787  28.1365
    32.7709  33.1482

     the Fermi energy is     8.4198 ev

!    total energy              =      -4.18788638 Ry
     estimated scf accuracy    <       0.00000031 Ry
     smearing contrib. (-TS)   =       0.00042091 Ry
     internal energy E=F+TS    =      -4.18830729 Ry

     The total energy is F=E-TS. E is the sum of the following terms:
     one-electron contribution =       2.97470692 Ry
     hartree contribution      =       0.01008949 Ry
     xc contribution           =      -1.64251010 Ry
     ewald contribution        =      -5.53059360 Ry

     convergence has been achieved in   3 iterations

     Writing all to output data dir ./tmp/al.save/

     init_run     :      0.07s CPU      0.08s WALL (       1 calls)
     electrons    :      0.38s CPU      0.40s WALL (       1 calls)

     Called by init_run:
     wfcinit      :      0.04s CPU      0.05s WALL (       1 calls)
     potinit      :      0.00s CPU      0.00s WALL (       1 calls)
     hinit0       :      0.03s CPU      0.03s WALL (       1 calls)

     Called by electrons:
     c_bands      :      0.33s CPU      0.35s WALL (       4 calls)
     sum_band     :      0.05s CPU      0.05s WALL (       4 calls)
     v_of_rho     :      0.00s CPU      0.00s WALL (       4 calls)
     mix_rho      :      0.00s CPU      0.00s WALL (       4 calls)

     Called by c_bands:
     init_us_2    :      0.01s CPU      0.01s WALL (     540 calls)
     init_us_2:cp :      0.01s CPU      0.01s WALL (     540 calls)
     cegterg      :      0.32s CPU      0.34s WALL (     240 calls)

     Called by *egterg:
     cdiaghg      :      0.07s CPU      0.07s WALL (     747 calls)
     h_psi        :      0.27s CPU      0.28s WALL (     867 calls)
     g_psi        :      0.00s CPU      0.00s WALL (     567 calls)

     Called by h_psi:
     h_psi:calbec :      0.00s CPU      0.00s WALL (     867 calls)
     vloc_psi     :      0.25s CPU      0.27s WALL (     867 calls)
     add_vuspsi   :      0.00s CPU      0.00s WALL (     867 calls)

     General routines
     calbec       :      0.00s CPU      0.00s WALL (     867 calls)
     fft          :      0.02s CPU      0.02s WALL (      12 calls)
     ffts         :      0.00s CPU      0.00s WALL (       4 calls)
     fftw         :      0.23s CPU      0.24s WALL (   16312 calls)

     Parallel routines

     PWSCF        :      0.51s CPU      0.53s WALL


   This run was terminated on:  23:12:52   6Jun2023            

=------------------------------------------------------------------------------=
   JOB DONE.
=------------------------------------------------------------------------------=
