
     Program PROJWFC v.7.0 starts on  6Jun2023 at 22:59:44 

     This program is part of the open-source Quantum ESPRESSO suite
     for quantum simulation of materials; please cite
         "P. Giannozzi et al., J. Phys.:Condens. Matter 21 395502 (2009);
         "P. Giannozzi et al., J. Phys.:Condens. Matter 29 465901 (2017);
         "P. Giannozzi et al., J. Chem. Phys. 152 154105 (2020);
          URL http://www.quantum-espresso.org", 
     in publications or presentations arising from this work. More details at
     http://www.quantum-espresso.org/quote

     Parallel version (MPI), running on     1 processors

     MPI processes distributed on     1 nodes
     10202 MiB available memory on the printing compute node when the environment starts


     Reading xml data from directory:

     ./tmp/al.save/

     IMPORTANT: XC functional enforced from input :
     Exchange-correlation= PZ
                           (   1   1   0   0   0   0   0)
     Any further DFT definition will be discarded
     Please, verify this is what you really want


     G-vector sticks info
     --------------------
     sticks:   dense  smooth     PW     G-vecs:    dense   smooth      PW
     Sum         121     121     55                  893      893     259

     Using Slab Decomposition


     Gaussian broadening (read from file): ngauss,degauss=  -1    0.050000


     Calling projwave .... 

     Subspace diagonalization in iterative solution of the eigenvalue problem:
     a serial algorithm will be used


  Problem Sizes 
  natomwfc =            4
  nbnd     =           10
  nkstot   =          408
  npwx     =          122
  nkb      =            4


     Atomic states used for projection
     (read from pseudopotential files):

     state #   1: atom   1 (Al ), wfc  1 (l=0 m= 1)
     state #   2: atom   1 (Al ), wfc  2 (l=1 m= 1)
     state #   3: atom   1 (Al ), wfc  2 (l=1 m= 2)
     state #   4: atom   1 (Al ), wfc  2 (l=1 m= 3)

 k =  -0.0312500000  0.0312500000  0.0312500000
==== e(   1) =    -3.10905 eV ==== 
     psi = 0.961*[#   1]+0.011*[#   2]+0.011*[#   3]+0.011*[#   4]
    |psi|^2 = 0.995
==== e(   2) =    20.76064 eV ==== 
     psi = 0.072*[#   2]+0.072*[#   3]+0.072*[#   4]+0.008*[#   1]
    |psi|^2 = 0.225
==== e(   3) =    21.31052 eV ==== 
     psi = 0.034*[#   2]+0.034*[#   3]+0.034*[#   4]
    |psi|^2 = 0.102
==== e(   4) =    21.31052 eV ==== 
     psi = 0.034*[#   2]+0.034*[#   3]+0.034*[#   4]
    |psi|^2 = 0.102
==== e(   5) =    23.08447 eV ==== 
     psi = 0.275*[#   2]+0.275*[#   3]+0.275*[#   4]
    |psi|^2 = 0.824
==== e(   6) =    23.08447 eV ==== 
     psi = 0.275*[#   2]+0.275*[#   3]+0.275*[#   4]
    |psi|^2 = 0.824
==== e(   7) =    23.27364 eV ==== 
     psi = 0.221*[#   2]+0.221*[#   3]+0.221*[#   4]+0.026*[#   1]
    |psi|^2 = 0.688
==== e(   8) =    25.64489 eV ==== 
     psi = 0.002*[#   2]+0.002*[#   3]+0.002*[#   4]
    |psi|^2 = 0.006
==== e(   9) =    28.61064 eV ==== 
     psi = 0.002*[#   2]+0.002*[#   3]+0.002*[#   4]
    |psi|^2 = 0.006
==== e(  10) =    28.61064 eV ==== 
     psi = 0.002*[#   2]+0.002*[#   3]+0.002*[#   4]
    |psi|^2 = 0.006

 k =  -0.0937500000  0.0937500000 -0.0312500000
==== e(   1) =    -2.95902 eV ==== 
     psi = 0.816*[#   1]+0.060*[#   2]+0.060*[#   3]+0.060*[#   4]
    |psi|^2 = 0.995
==== e(   2) =    19.11352 eV ==== 
     psi = 0.123*[#   2]+0.123*[#   3]+0.123*[#   4]+0.045*[#   1]
    |psi|^2 = 0.414
==== e(   3) =    20.16012 eV ==== 
     psi = 0.134*[#   2]+0.134*[#   3]+0.134*[#   4]+0.047*[#   1]
    |psi|^2 = 0.449
==== e(   4) =    21.45269 eV ==== 
     psi = 0.035*[#   2]+0.035*[#   3]+0.035*[#   4]
    |psi|^2 = 0.105
==== e(   5) =    23.17597 eV ==== 
     psi = 0.275*[#   2]+0.275*[#   3]+0.275*[#   4]
    |psi|^2 = 0.826
==== e(   6) =    23.73853 eV ==== 
     psi = 0.158*[#   2]+0.158*[#   3]+0.158*[#   4]+0.023*[#   1]
    |psi|^2 = 0.497
==== e(   7) =    24.16341 eV ==== 
     psi = 0.125*[#   2]+0.125*[#   3]+0.125*[#   4]+0.053*[#   1]
    |psi|^2 = 0.429
==== e(   8) =    27.08310 eV ==== 
     psi = 0.012*[#   2]+0.012*[#   3]+0.012*[#   4]+0.002*[#   1]
    |psi|^2 = 0.037
==== e(   9) =    27.37169 eV ==== 
     psi = 0.008*[#   2]+0.008*[#   3]+0.008*[#   4]
    |psi|^2 = 0.025
==== e(  10) =    28.11298 eV ==== 
     psi = 0.005*[#   2]+0.005*[#   3]+0.005*[#   4]+0.002*[#   1]
    |psi|^2 = 0.016

 k =  -0.1562500000  0.1562500000 -0.0937500000
==== e(   1) =    -2.58519 eV ==== 
     psi = 0.615*[#   1]+0.127*[#   2]+0.127*[#   3]+0.127*[#   4]
    |psi|^2 = 0.995
==== e(   2) =    16.54938 eV ==== 
     psi = 0.211*[#   1]+0.134*[#   2]+0.134*[#   3]+0.134*[#   4]
    |psi|^2 = 0.613
==== e(   3) =    19.52561 eV ==== 
     psi = 0.172*[#   2]+0.172*[#   3]+0.172*[#   4]+0.044*[#   1]
    |psi|^2 = 0.558
==== e(   4) =    21.00559 eV ==== 
     psi = 0.124*[#   2]+0.124*[#   3]+0.124*[#   4]
    |psi|^2 = 0.373
==== e(   5) =    23.74913 eV ==== 
     psi = 0.068*[#   1]+0.068*[#   2]+0.068*[#   3]+0.068*[#   4]
    |psi|^2 = 0.270
==== e(   6) =    24.10235 eV ==== 
     psi = 0.199*[#   2]+0.199*[#   3]+0.199*[#   4]
    |psi|^2 = 0.597
==== e(   7) =    25.20765 eV ==== 
     psi = 0.117*[#   2]+0.117*[#   3]+0.117*[#   4]+0.023*[#   1]
    |psi|^2 = 0.375
==== e(   8) =    26.00185 eV ==== 
     psi = 0.002*[#   2]+0.002*[#   3]+0.002*[#   4]
    |psi|^2 = 0.007
==== e(   9) =    26.95321 eV ==== 
     psi = 0.002*[#   1]+0.001*[#   2]+0.001*[#   3]+0.001*[#   4]
    |psi|^2 = 0.006
==== e(  10) =    29.55442 eV ==== 
     psi = 0.010*[#   1]+0.009*[#   2]+0.009*[#   3]+0.009*[#   4]
    |psi|^2 = 0.035

 k =  -0.2187500000  0.2187500000 -0.1562500000
==== e(   1) =    -1.98920 eV ==== 
     psi = 0.472*[#   1]+0.174*[#   2]+0.174*[#   3]+0.174*[#   4]
    |psi|^2 = 0.995
==== e(   2) =    14.01828 eV ==== 
     psi = 0.377*[#   1]+0.127*[#   2]+0.127*[#   3]+0.127*[#   4]
    |psi|^2 = 0.758
==== e(   3) =    19.06253 eV ==== 
     psi = 0.198*[#   2]+0.198*[#   3]+0.198*[#   4]+0.034*[#   1]
    |psi|^2 = 0.628
==== e(   4) =    20.58613 eV ==== 
     psi = 0.167*[#   2]+0.167*[#   3]+0.167*[#   4]
    |psi|^2 = 0.500
==== e(   5) =    23.59239 eV ==== 
     psi = 0.058*[#   1]+0.033*[#   2]+0.033*[#   3]+0.033*[#   4]
    |psi|^2 = 0.156
==== e(   6) =    23.99638 eV ==== 
     psi = 0.119*[#   2]+0.119*[#   3]+0.119*[#   4]
    |psi|^2 = 0.356
==== e(   7) =    25.04875 eV ==== 
     psi = 0.073*[#   2]+0.073*[#   3]+0.073*[#   4]+0.015*[#   1]
    |psi|^2 = 0.233
==== e(   8) =    26.09432 eV ==== 
     psi = 0.044*[#   2]+0.044*[#   3]+0.044*[#   4]
    |psi|^2 = 0.132
==== e(   9) =    27.14618 eV ==== 
     psi = 0.034*[#   2]+0.034*[#   3]+0.034*[#   4]
    |psi|^2 = 0.102
==== e(  10) =    29.08928 eV ==== 
     psi = 0.015*[#   1]+0.003*[#   2]+0.003*[#   3]+0.003*[#   4]
    |psi|^2 = 0.024

 k =  -0.2812500000  0.2812500000 -0.2187500000
==== e(   1) =    -1.17472 eV ==== 
     psi = 0.394*[#   1]+0.200*[#   2]+0.200*[#   3]+0.200*[#   4]
    |psi|^2 = 0.995
==== e(   2) =    11.60901 eV ==== 
     psi = 0.497*[#   1]+0.120*[#   2]+0.120*[#   3]+0.120*[#   4]
    |psi|^2 = 0.857
==== e(   3) =    18.77331 eV ==== 
     psi = 0.212*[#   2]+0.212*[#   3]+0.212*[#   4]+0.025*[#   1]
    |psi|^2 = 0.660
==== e(   4) =    20.31712 eV ==== 
     psi = 0.184*[#   2]+0.184*[#   3]+0.184*[#   4]
    |psi|^2 = 0.552
==== e(   5) =    22.82811 eV ==== 
     psi = 0.103*[#   2]+0.103*[#   3]+0.103*[#   4]
    |psi|^2 = 0.308
==== e(   6) =    23.44731 eV ==== 
     psi = 0.030*[#   2]+0.030*[#   3]+0.030*[#   4]+0.029*[#   1]
    |psi|^2 = 0.119
==== e(   7) =    23.91881 eV ==== 
     psi = 0.055*[#   2]+0.055*[#   3]+0.055*[#   4]+0.022*[#   1]
    |psi|^2 = 0.185
==== e(   8) =    27.63128 eV ==== 
     psi = 0.045*[#   2]+0.045*[#   3]+0.045*[#   4]
    |psi|^2 = 0.134
==== e(   9) =    27.67290 eV ==== 
     psi = 0.015*[#   2]+0.015*[#   3]+0.015*[#   4]+0.008*[#   1]
    |psi|^2 = 0.053
==== e(  10) =    28.98389 eV ==== 
     psi = 0.021*[#   2]+0.021*[#   3]+0.021*[#   4]+0.005*[#   1]
    |psi|^2 = 0.067

 k =  -0.3437500000  0.3437500000 -0.2812500000
==== e(   1) =    -0.15030 eV ==== 
     psi = 0.363*[#   1]+0.210*[#   2]+0.210*[#   3]+0.210*[#   4]
    |psi|^2 = 0.994
==== e(   2) =     9.34776 eV ==== 
     psi = 0.562*[#   1]+0.119*[#   2]+0.119*[#   3]+0.119*[#   4]
    |psi|^2 = 0.920
==== e(   3) =    18.66415 eV ==== 
     psi = 0.214*[#   2]+0.214*[#   3]+0.214*[#   4]+0.018*[#   1]
    |psi|^2 = 0.660
==== e(   4) =    20.21665 eV ==== 
     psi = 0.187*[#   2]+0.187*[#   3]+0.187*[#   4]
    |psi|^2 = 0.560
==== e(   5) =    21.72788 eV ==== 
     psi = 0.115*[#   2]+0.115*[#   3]+0.115*[#   4]
    |psi|^2 = 0.344
==== e(   6) =    22.76550 eV ==== 
     psi = 0.086*[#   2]+0.086*[#   3]+0.086*[#   4]+0.004*[#   1]
    |psi|^2 = 0.262
==== e(   7) =    23.50892 eV ==== 
     psi = 0.031*[#   1]+0.004*[#   2]+0.004*[#   3]+0.004*[#   4]
    |psi|^2 = 0.042
==== e(   8) =    26.72929 eV ==== 
     psi = 0.011*[#   1]+0.006*[#   2]+0.006*[#   3]+0.006*[#   4]
    |psi|^2 = 0.029
==== e(   9) =    29.48223 eV ==== 
     psi = 0.030*[#   2]+0.030*[#   3]+0.030*[#   4]
    |psi|^2 = 0.091
==== e(  10) =    30.70019 eV ==== 
     psi = 0.019*[#   2]+0.019*[#   3]+0.019*[#   4]+0.001*[#   1]
    |psi|^2 = 0.058

 k =  -0.4062500000  0.4062500000 -0.3437500000
==== e(   1) =     1.07985 eV ==== 
     psi = 0.367*[#   1]+0.209*[#   2]+0.209*[#   3]+0.209*[#   4]
    |psi|^2 = 0.994
==== e(   2) =     7.24923 eV ==== 
     psi = 0.580*[#   1]+0.126*[#   2]+0.126*[#   3]+0.126*[#   4]
    |psi|^2 = 0.957
==== e(   3) =    18.73537 eV ==== 
     psi = 0.206*[#   2]+0.206*[#   3]+0.206*[#   4]+0.013*[#   1]
    |psi|^2 = 0.633
==== e(   4) =    20.29353 eV ==== 
     psi = 0.185*[#   2]+0.185*[#   3]+0.185*[#   4]
    |psi|^2 = 0.554
==== e(   5) =    20.79630 eV ==== 
     psi = 0.129*[#   2]+0.129*[#   3]+0.129*[#   4]
    |psi|^2 = 0.387
==== e(   6) =    21.84700 eV ==== 
     psi = 0.102*[#   2]+0.102*[#   3]+0.102*[#   4]+0.007*[#   1]
    |psi|^2 = 0.312
==== e(   7) =    23.64953 eV ==== 
     psi = 0.017*[#   1]+0.003*[#   2]+0.003*[#   3]+0.003*[#   4]
    |psi|^2 = 0.026
==== e(   8) =    25.80392 eV ==== 
     psi = 0.010*[#   1]+0.005*[#   2]+0.005*[#   3]+0.005*[#   4]
    |psi|^2 = 0.025
==== e(   9) =    31.51040 eV ==== 
     psi = 0.017*[#   2]+0.017*[#   3]+0.017*[#   4]
    |psi|^2 = 0.052
==== e(  10) =    32.62746 eV ==== 
     psi = 0.010*[#   2]+0.010*[#   3]+0.010*[#   4]
    |psi|^2 = 0.031

 k =  -0.4687500000  0.4687500000 -0.4062500000
==== e(   1) =     2.50680 eV ==== 
     psi = 0.386*[#   1]+0.202*[#   2]+0.202*[#   3]+0.202*[#   4]
    |psi|^2 = 0.993
==== e(   2) =     5.32667 eV ==== 
     psi = 0.573*[#   1]+0.135*[#   2]+0.135*[#   3]+0.135*[#   4]
    |psi|^2 = 0.977
==== e(   3) =    18.99187 eV ==== 
     psi = 0.190*[#   2]+0.190*[#   3]+0.190*[#   4]+0.010*[#   1]
    |psi|^2 = 0.580
==== e(   4) =    20.04792 eV ==== 
     psi = 0.176*[#   2]+0.176*[#   3]+0.176*[#   4]
    |psi|^2 = 0.528
==== e(   5) =    20.55308 eV ==== 
     psi = 0.145*[#   2]+0.145*[#   3]+0.145*[#   4]
    |psi|^2 = 0.436
==== e(   6) =    21.09785 eV ==== 
     psi = 0.123*[#   2]+0.123*[#   3]+0.123*[#   4]+0.008*[#   1]
    |psi|^2 = 0.377
==== e(   7) =    23.97309 eV ==== 
     psi = 0.010*[#   1]+0.002*[#   2]+0.002*[#   3]+0.002*[#   4]
    |psi|^2 = 0.015
==== e(   8) =    25.02018 eV ==== 
     psi = 0.011*[#   1]+0.005*[#   2]+0.005*[#   3]+0.005*[#   4]
    |psi|^2 = 0.026
==== e(   9) =    33.54786 eV ==== 
     psi = 0.007*[#   2]+0.007*[#   3]+0.007*[#   4]
    |psi|^2 = 0.020
==== e(  10) =    34.33412 eV ==== 
     psi = 0.002*[#   2]+0.002*[#   3]+0.002*[#   4]
    |psi|^2 = 0.007

 k =   0.4687500000 -0.4687500000  0.5312500000
==== e(   1) =     3.54447 eV ==== 
     psi = 0.267*[#   1]+0.242*[#   2]+0.242*[#   3]+0.242*[#   4]
    |psi|^2 = 0.993
==== e(   2) =     4.16489 eV ==== 
     psi = 0.695*[#   1]+0.095*[#   2]+0.095*[#   3]+0.095*[#   4]
    |psi|^2 = 0.981
==== e(   3) =    19.43218 eV ==== 
     psi = 0.164*[#   2]+0.164*[#   3]+0.164*[#   4]+0.008*[#   1]
    |psi|^2 = 0.500
==== e(   4) =    19.48735 eV ==== 
     psi = 0.191*[#   2]+0.191*[#   3]+0.191*[#   4]
    |psi|^2 = 0.573
==== e(   5) =    20.53033 eV ==== 
     psi = 0.149*[#   2]+0.149*[#   3]+0.149*[#   4]+0.010*[#   1]
    |psi|^2 = 0.456
==== e(   6) =    20.99166 eV ==== 
     psi = 0.133*[#   2]+0.133*[#   3]+0.133*[#   4]
    |psi|^2 = 0.400
==== e(   7) =    24.30997 eV ==== 
     psi = 0.001*[#   2]+0.001*[#   3]+0.001*[#   4]
    |psi|^2 = 0.004
==== e(   8) =    24.56867 eV ==== 
     psi = 0.018*[#   1]+0.006*[#   2]+0.006*[#   3]+0.006*[#   4]
    |psi|^2 = 0.035
==== e(   9) =    34.45524 eV ==== 
     psi = 0.001*[#   2]+0.001*[#   3]+0.001*[#   4]
    |psi|^2 = 0.004
==== e(  10) =    34.85939 eV ==== 

    |psi|^2 = 0.000

 k =   0.4062500000 -0.4062500000  0.4687500000
==== e(   1) =     2.01031 eV ==== 
     psi = 0.381*[#   1]+0.204*[#   2]+0.204*[#   3]+0.204*[#   4]
    |psi|^2 = 0.993
==== e(   2) =     5.94727 eV ==== 
     psi = 0.575*[#   1]+0.132*[#   2]+0.132*[#   3]+0.132*[#   4]
    |psi|^2 = 0.972
==== e(   3) =    19.10945 eV ==== 
     psi = 0.209*[#   2]+0.209*[#   3]+0.209*[#   4]
    |psi|^2 = 0.626
==== e(   4) =    20.04319 eV ==== 
     psi = 0.044*[#   2]+0.044*[#   3]+0.044*[#   4]+0.002*[#   1]
    |psi|^2 = 0.133
==== e(   5) =    20.16522 eV ==== 
     psi = 0.264*[#   2]+0.264*[#   3]+0.264*[#   4]+0.018*[#   1]
    |psi|^2 = 0.809
==== e(   6) =    21.61407 eV ==== 
     psi = 0.114*[#   2]+0.114*[#   3]+0.114*[#   4]
    |psi|^2 = 0.341
==== e(   7) =    23.92012 eV ==== 
     psi = 0.010*[#   1]+0.005*[#   2]+0.005*[#   3]+0.005*[#   4]
    |psi|^2 = 0.025
==== e(   8) =    25.19444 eV ==== 
     psi = 0.012*[#   1]+0.003*[#   2]+0.003*[#   3]+0.003*[#   4]
    |psi|^2 = 0.021
==== e(   9) =    32.76015 eV ==== 
     psi = 0.009*[#   2]+0.009*[#   3]+0.009*[#   4]
    |psi|^2 = 0.029
==== e(  10) =    34.00239 eV ==== 
     psi = 0.005*[#   2]+0.005*[#   3]+0.005*[#   4]
    |psi|^2 = 0.015

 k =   0.3437500000 -0.3437500000  0.4062500000
==== e(   1) =     0.64768 eV ==== 
     psi = 0.363*[#   1]+0.210*[#   2]+0.210*[#   3]+0.210*[#   4]
    |psi|^2 = 0.994
==== e(   2) =     7.92965 eV ==== 
     psi = 0.579*[#   1]+0.123*[#   2]+0.123*[#   3]+0.123*[#   4]
    |psi|^2 = 0.947
==== e(   3) =    18.91526 eV ==== 
     psi = 0.221*[#   2]+0.221*[#   3]+0.221*[#   4]
    |psi|^2 = 0.663
==== e(   4) =    19.94418 eV ==== 
     psi = 0.153*[#   2]+0.153*[#   3]+0.153*[#   4]+0.015*[#   1]
    |psi|^2 = 0.475
==== e(   5) =    20.87373 eV ==== 
     psi = 0.143*[#   2]+0.143*[#   3]+0.143*[#   4]+0.009*[#   1]
    |psi|^2 = 0.439
==== e(   6) =    22.42100 eV ==== 
     psi = 0.095*[#   2]+0.095*[#   3]+0.095*[#   4]
    |psi|^2 = 0.286
==== e(   7) =    23.65522 eV ==== 
     psi = 0.018*[#   1]+0.007*[#   2]+0.007*[#   3]+0.007*[#   4]
    |psi|^2 = 0.038
==== e(   8) =    26.03083 eV ==== 
     psi = 0.011*[#   1]+0.004*[#   2]+0.004*[#   3]+0.004*[#   4]
    |psi|^2 = 0.023
==== e(   9) =    30.71275 eV ==== 
     psi = 0.020*[#   2]+0.020*[#   3]+0.020*[#   4]
    |psi|^2 = 0.060
==== e(  10) =    32.11989 eV ==== 
     psi = 0.014*[#   2]+0.014*[#   3]+0.014*[#   4]
    |psi|^2 = 0.043

 k =   0.2812500000 -0.2812500000  0.3437500000
==== e(   1) =    -0.51517 eV ==== 
     psi = 0.369*[#   1]+0.208*[#   2]+0.208*[#   3]+0.208*[#   4]
    |psi|^2 = 0.995
==== e(   2) =    10.08400 eV ==== 
     psi = 0.546*[#   1]+0.119*[#   2]+0.119*[#   3]+0.119*[#   4]
    |psi|^2 = 0.902
==== e(   3) =    18.90362 eV ==== 
     psi = 0.226*[#   2]+0.226*[#   3]+0.226*[#   4]
    |psi|^2 = 0.678
==== e(   4) =    19.92519 eV ==== 
     psi = 0.166*[#   2]+0.166*[#   3]+0.166*[#   4]+0.021*[#   1]
    |psi|^2 = 0.518
==== e(   5) =    21.86378 eV ==== 
     psi = 0.117*[#   2]+0.117*[#   3]+0.117*[#   4]+0.007*[#   1]
    |psi|^2 = 0.357
==== e(   6) =    23.40131 eV ==== 
     psi = 0.081*[#   2]+0.081*[#   3]+0.081*[#   4]
    |psi|^2 = 0.244
==== e(   7) =    23.56227 eV ==== 
     psi = 0.030*[#   1]+0.010*[#   2]+0.010*[#   3]+0.010*[#   4]
    |psi|^2 = 0.059
==== e(   8) =    26.97474 eV ==== 
     psi = 0.011*[#   1]+0.008*[#   2]+0.008*[#   3]+0.008*[#   4]
    |psi|^2 = 0.034
==== e(   9) =    28.78192 eV ==== 
     psi = 0.030*[#   2]+0.030*[#   3]+0.030*[#   4]+0.003*[#   1]
    |psi|^2 = 0.092
==== e(  10) =    30.18601 eV ==== 
     psi = 0.024*[#   2]+0.024*[#   3]+0.024*[#   4]
    |psi|^2 = 0.073

 k =   0.2187500000 -0.2187500000  0.2812500000
==== e(   1) =    -1.46952 eV ==== 
     psi = 0.414*[#   1]+0.194*[#   2]+0.194*[#   3]+0.194*[#   4]
    |psi|^2 = 0.995
==== e(   2) =    12.39814 eV ==== 
     psi = 0.464*[#   1]+0.122*[#   2]+0.122*[#   3]+0.122*[#   4]
    |psi|^2 = 0.828
==== e(   3) =    19.07301 eV ==== 
     psi = 0.222*[#   2]+0.222*[#   3]+0.222*[#   4]
    |psi|^2 = 0.665
==== e(   4) =    20.08112 eV ==== 
     psi = 0.160*[#   2]+0.160*[#   3]+0.160*[#   4]+0.030*[#   1]
    |psi|^2 = 0.510
==== e(   5) =    22.99837 eV ==== 
     psi = 0.111*[#   2]+0.111*[#   3]+0.111*[#   4]+0.002*[#   1]
    |psi|^2 = 0.335
==== e(   6) =    23.63394 eV ==== 
     psi = 0.051*[#   1]+0.011*[#   2]+0.011*[#   3]+0.011*[#   4]
    |psi|^2 = 0.085
==== e(   7) =    24.51993 eV ==== 
     psi = 0.076*[#   2]+0.076*[#   3]+0.076*[#   4]
    |psi|^2 = 0.229
==== e(   8) =    26.83390 eV ==== 
     psi = 0.050*[#   2]+0.050*[#   3]+0.050*[#   4]
    |psi|^2 = 0.151
==== e(   9) =    28.24842 eV ==== 
     psi = 0.016*[#   1]+0.002*[#   2]+0.002*[#   3]+0.002*[#   4]
    |psi|^2 = 0.021
==== e(  10) =    28.43201 eV ==== 
     psi = 0.033*[#   2]+0.033*[#   3]+0.033*[#   4]
    |psi|^2 = 0.099

 k =   0.1562500000 -0.1562500000  0.2187500000
==== e(   1) =    -2.21263 eV ==== 
     psi = 0.511*[#   1]+0.161*[#   2]+0.161*[#   3]+0.161*[#   4]
    |psi|^2 = 0.995
==== e(   2) =    14.85216 eV ==== 
     psi = 0.328*[#   1]+0.129*[#   2]+0.129*[#   3]+0.129*[#   4]
    |psi|^2 = 0.715
==== e(   3) =    19.41698 eV ==== 
     psi = 0.206*[#   2]+0.206*[#   3]+0.206*[#   4]
    |psi|^2 = 0.618
==== e(   4) =    20.39782 eV ==== 
     psi = 0.136*[#   2]+0.136*[#   3]+0.136*[#   4]+0.039*[#   1]
    |psi|^2 = 0.448
==== e(   5) =    23.69576 eV ==== 
     psi = 0.081*[#   2]+0.081*[#   3]+0.081*[#   4]+0.038*[#   1]
    |psi|^2 = 0.280
==== e(   6) =    24.20131 eV ==== 
     psi = 0.097*[#   2]+0.097*[#   3]+0.097*[#   4]+0.038*[#   1]
    |psi|^2 = 0.330
==== e(   7) =    25.50395 eV ==== 
     psi = 0.106*[#   2]+0.106*[#   3]+0.106*[#   4]
    |psi|^2 = 0.319
==== e(   8) =    25.54066 eV ==== 
     psi = 0.028*[#   2]+0.028*[#   3]+0.028*[#   4]
    |psi|^2 = 0.086
==== e(   9) =    27.14905 eV ==== 
     psi = 0.015*[#   2]+0.015*[#   3]+0.015*[#   4]
    |psi|^2 = 0.046
==== e(  10) =    29.33033 eV ==== 
     psi = 0.016*[#   1]+0.005*[#   2]+0.005*[#   3]+0.005*[#   4]
    |psi|^2 = 0.030

 k =   0.0937500000 -0.0937500000  0.1562500000
==== e(   1) =    -2.73454 eV ==== 
     psi = 0.678*[#   1]+0.106*[#   2]+0.106*[#   3]+0.106*[#   4]
    |psi|^2 = 0.995
==== e(   2) =    17.41738 eV ==== 
     psi = 0.157*[#   1]+0.132*[#   2]+0.132*[#   3]+0.132*[#   4]
    |psi|^2 = 0.554
==== e(   3) =    19.93548 eV ==== 
     psi = 0.176*[#   2]+0.176*[#   3]+0.176*[#   4]
    |psi|^2 = 0.528
==== e(   4) =    20.83291 eV ==== 
     psi = 0.089*[#   2]+0.089*[#   3]+0.089*[#   4]+0.041*[#   1]
    |psi|^2 = 0.308
==== e(   5) =    23.61522 eV ==== 
     psi = 0.224*[#   2]+0.224*[#   3]+0.224*[#   4]+0.001*[#   1]
    |psi|^2 = 0.674
==== e(   6) =    23.98239 eV ==== 
     psi = 0.088*[#   1]+0.055*[#   2]+0.055*[#   3]+0.055*[#   4]
    |psi|^2 = 0.254
==== e(   7) =    24.98223 eV ==== 
     psi = 0.142*[#   2]+0.142*[#   3]+0.142*[#   4]
    |psi|^2 = 0.427
==== e(   8) =    26.17016 eV ==== 
     psi = 0.007*[#   2]+0.007*[#   3]+0.007*[#   4]+0.003*[#   1]
    |psi|^2 = 0.025
==== e(   9) =    27.65167 eV ==== 
     psi = 0.003*[#   2]+0.003*[#   3]+0.003*[#   4]
    |psi|^2 = 0.010
==== e(  10) =    28.67680 eV ==== 
     psi = 0.009*[#   2]+0.009*[#   3]+0.009*[#   4]+0.008*[#   1]
    |psi|^2 = 0.034

 k =   0.0312500000 -0.0312500000  0.0937500000
==== e(   1) =    -3.03400 eV ==== 
     psi = 0.881*[#   1]+0.038*[#   2]+0.038*[#   3]+0.038*[#   4]
    |psi|^2 = 0.995
==== e(   2) =    19.96529 eV ==== 
     psi = 0.107*[#   2]+0.107*[#   3]+0.107*[#   4]+0.021*[#   1]
    |psi|^2 = 0.341
==== e(   3) =    20.60485 eV ==== 
     psi = 0.124*[#   2]+0.124*[#   3]+0.124*[#   4]
    |psi|^2 = 0.373
==== e(   4) =    21.15655 eV ==== 
     psi = 0.026*[#   2]+0.026*[#   3]+0.026*[#   4]+0.010*[#   1]
    |psi|^2 = 0.087
==== e(   5) =    22.88807 eV ==== 
     psi = 0.273*[#   2]+0.273*[#   3]+0.273*[#   4]+0.052*[#   1]
    |psi|^2 = 0.871
==== e(   6) =    23.81210 eV ==== 
     psi = 0.162*[#   2]+0.162*[#   3]+0.162*[#   4]+0.026*[#   1]
    |psi|^2 = 0.511
==== e(   7) =    23.90252 eV ==== 
     psi = 0.187*[#   2]+0.187*[#   3]+0.187*[#   4]
    |psi|^2 = 0.560
==== e(   8) =    26.35473 eV ==== 
     psi = 0.005*[#   2]+0.005*[#   3]+0.005*[#   4]
    |psi|^2 = 0.016
==== e(   9) =    27.61482 eV ==== 
     psi = 0.008*[#   2]+0.008*[#   3]+0.008*[#   4]+0.002*[#   1]
    |psi|^2 = 0.025
==== e(  10) =    28.68394 eV ==== 
     psi = 0.002*[#   2]+0.002*[#   3]+0.002*[#   4]
    |psi|^2 = 0.005

 k =  -0.0312500000  0.1562500000  0.0312500000
==== e(   1) =    -2.88412 eV ==== 
     psi = 0.761*[#   1]+0.078*[#   2]+0.078*[#   3]+0.078*[#   4]
    |psi|^2 = 0.995
==== e(   2) =    19.12799 eV ==== 
     psi = 0.131*[#   2]+0.131*[#   3]+0.131*[#   4]+0.026*[#   1]
    |psi|^2 = 0.419
==== e(   3) =    19.80481 eV ==== 
     psi = 0.178*[#   2]+0.178*[#   3]+0.178*[#   4]
    |psi|^2 = 0.533
==== e(   4) =    20.52751 eV ==== 
     psi = 0.040*[#   2]+0.040*[#   3]+0.040*[#   4]+0.019*[#   1]
    |psi|^2 = 0.139
==== e(   5) =    22.58774 eV ==== 
     psi = 0.231*[#   2]+0.231*[#   3]+0.231*[#   4]+0.158*[#   1]
    |psi|^2 = 0.850
==== e(   6) =    24.72821 eV ==== 
     psi = 0.121*[#   2]+0.121*[#   3]+0.121*[#   4]+0.012*[#   1]
    |psi|^2 = 0.375
==== e(   7) =    24.92368 eV ==== 
     psi = 0.137*[#   2]+0.137*[#   3]+0.137*[#   4]
    |psi|^2 = 0.410
==== e(   8) =    26.09953 eV ==== 
     psi = 0.011*[#   2]+0.011*[#   3]+0.011*[#   4]+0.010*[#   1]
    |psi|^2 = 0.045
==== e(   9) =    27.42948 eV ==== 
     psi = 0.006*[#   2]+0.006*[#   3]+0.006*[#   4]
    |psi|^2 = 0.018
==== e(  10) =    28.83127 eV ==== 
     psi = 0.001*[#   2]+0.001*[#   3]+0.001*[#   4]
    |psi|^2 = 0.003

 k =  -0.0937500000  0.2187500000 -0.0312500000
==== e(   1) =    -2.58521 eV ==== 
     psi = 0.611*[#   1]+0.128*[#   2]+0.128*[#   3]+0.128*[#   4]
    |psi|^2 = 0.995
==== e(   2) =    17.41430 eV ==== 
     psi = 0.160*[#   2]+0.160*[#   3]+0.160*[#   4]+0.055*[#   1]
    |psi|^2 = 0.535
==== e(   3) =    18.67752 eV ==== 
     psi = 0.182*[#   2]+0.182*[#   3]+0.182*[#   4]+0.100*[#   1]
    |psi|^2 = 0.644
==== e(   4) =    20.61730 eV ==== 
     psi = 0.051*[#   2]+0.051*[#   3]+0.051*[#   4]+0.022*[#   1]
    |psi|^2 = 0.176
==== e(   5) =    22.65198 eV ==== 
     psi = 0.227*[#   2]+0.227*[#   3]+0.227*[#   4]+0.143*[#   1]
    |psi|^2 = 0.825
==== e(   6) =    24.48944 eV ==== 
     psi = 0.011*[#   1]+0.010*[#   2]+0.010*[#   3]+0.010*[#   4]
    |psi|^2 = 0.042
==== e(   7) =    25.27237 eV ==== 
     psi = 0.081*[#   2]+0.081*[#   3]+0.081*[#   4]+0.011*[#   1]
    |psi|^2 = 0.255
==== e(   8) =    25.95506 eV ==== 
     psi = 0.091*[#   2]+0.091*[#   3]+0.091*[#   4]+0.017*[#   1]
    |psi|^2 = 0.291
==== e(   9) =    28.31012 eV ==== 
     psi = 0.002*[#   2]+0.002*[#   3]+0.002*[#   4]
    |psi|^2 = 0.005
==== e(  10) =    29.35932 eV ==== 
     psi = 0.012*[#   2]+0.012*[#   3]+0.012*[#   4]
    |psi|^2 = 0.038

 k =  -0.1562500000  0.2812500000 -0.0937500000
==== e(   1) =    -2.06343 eV ==== 
     psi = 0.477*[#   1]+0.172*[#   2]+0.172*[#   3]+0.172*[#   4]
    |psi|^2 = 0.995
==== e(   2) =    14.93801 eV ==== 
     psi = 0.224*[#   1]+0.164*[#   2]+0.164*[#   3]+0.164*[#   4]
    |psi|^2 = 0.717
==== e(   3) =    18.10526 eV ==== 
     psi = 0.205*[#   2]+0.205*[#   3]+0.205*[#   4]+0.080*[#   1]
    |psi|^2 = 0.695
==== e(   4) =    20.45398 eV ==== 
     psi = 0.078*[#   2]+0.078*[#   3]+0.078*[#   4]+0.066*[#   1]
    |psi|^2 = 0.300
==== e(   5) =    22.70533 eV ==== 
     psi = 0.139*[#   2]+0.139*[#   3]+0.139*[#   4]+0.067*[#   1]
    |psi|^2 = 0.483
==== e(   6) =    23.89365 eV ==== 
     psi = 0.082*[#   2]+0.082*[#   3]+0.082*[#   4]+0.009*[#   1]
    |psi|^2 = 0.254
==== e(   7) =    25.27043 eV ==== 
     psi = 0.033*[#   2]+0.033*[#   3]+0.033*[#   4]+0.025*[#   1]
    |psi|^2 = 0.124
==== e(   8) =    26.40519 eV ==== 
     psi = 0.067*[#   2]+0.067*[#   3]+0.067*[#   4]+0.009*[#   1]
    |psi|^2 = 0.209
==== e(   9) =    27.97783 eV ==== 
     psi = 0.015*[#   2]+0.015*[#   3]+0.015*[#   4]
    |psi|^2 = 0.046
==== e(  10) =    30.60301 eV ==== 
     psi = 0.008*[#   1]+0.007*[#   2]+0.007*[#   3]+0.007*[#   4]
    |psi|^2 = 0.028

 k =  -0.2187500000  0.3437500000 -0.1562500000
==== e(   1) =    -1.32232 eV ==== 
     psi = 0.394*[#   1]+0.200*[#   2]+0.200*[#   3]+0.200*[#   4]
    |psi|^2 = 0.995
==== e(   2) =    12.50972 eV ==== 
     psi = 0.367*[#   1]+0.156*[#   2]+0.156*[#   3]+0.156*[#   4]
    |psi|^2 = 0.836
==== e(   3) =    17.74067 eV ==== 
     psi = 0.223*[#   2]+0.223*[#   3]+0.223*[#   4]+0.059*[#   1]
    |psi|^2 = 0.728
==== e(   4) =    20.21066 eV ==== 
     psi = 0.099*[#   2]+0.099*[#   3]+0.099*[#   4]+0.060*[#   1]
    |psi|^2 = 0.358
==== e(   5) =    21.43338 eV ==== 
     psi = 0.115*[#   2]+0.115*[#   3]+0.115*[#   4]+0.054*[#   1]
    |psi|^2 = 0.399
==== e(   6) =    24.84380 eV ==== 
     psi = 0.087*[#   2]+0.087*[#   3]+0.087*[#   4]+0.002*[#   1]
    |psi|^2 = 0.264
==== e(   7) =    25.32131 eV ==== 
     psi = 0.048*[#   2]+0.048*[#   3]+0.048*[#   4]
    |psi|^2 = 0.143
==== e(   8) =    25.67633 eV ==== 
     psi = 0.028*[#   1]+0.018*[#   2]+0.018*[#   3]+0.018*[#   4]
    |psi|^2 = 0.082
==== e(   9) =    28.97529 eV ==== 
     psi = 0.022*[#   2]+0.022*[#   3]+0.022*[#   4]+0.001*[#   1]
    |psi|^2 = 0.069
==== e(  10) =    29.88097 eV ==== 
     psi = 0.007*[#   2]+0.007*[#   3]+0.007*[#   4]+0.006*[#   1]
    |psi|^2 = 0.026

 k =  -0.2812500000  0.4062500000 -0.2187500000
==== e(   1) =    -0.36827 eV ==== 
     psi = 0.354*[#   1]+0.214*[#   2]+0.214*[#   3]+0.214*[#   4]
    |psi|^2 = 0.995
==== e(   2) =    10.20928 eV ==== 
     psi = 0.463*[#   1]+0.148*[#   2]+0.148*[#   3]+0.148*[#   4]
    |psi|^2 = 0.908
==== e(   3) =    17.56159 eV ==== 
     psi = 0.231*[#   2]+0.231*[#   3]+0.231*[#   4]+0.043*[#   1]
    |psi|^2 = 0.736
==== e(   4) =    20.05343 eV ==== 
     psi = 0.046*[#   2]+0.046*[#   3]+0.046*[#   4]+0.016*[#   1]
    |psi|^2 = 0.155
==== e(   5) =    20.27870 eV ==== 
     psi = 0.200*[#   2]+0.200*[#   3]+0.200*[#   4]+0.085*[#   1]
    |psi|^2 = 0.685
==== e(   6) =    24.26441 eV ==== 
     psi = 0.055*[#   2]+0.055*[#   3]+0.055*[#   4]+0.004*[#   1]
    |psi|^2 = 0.169
==== e(   7) =    24.99452 eV ==== 
     psi = 0.036*[#   2]+0.036*[#   3]+0.036*[#   4]+0.006*[#   1]
    |psi|^2 = 0.115
==== e(   8) =    27.00731 eV ==== 
     psi = 0.034*[#   2]+0.034*[#   3]+0.034*[#   4]+0.004*[#   1]
    |psi|^2 = 0.106
==== e(   9) =    28.49111 eV ==== 
     psi = 0.008*[#   1]+0.006*[#   2]+0.006*[#   3]+0.006*[#   4]
    |psi|^2 = 0.026
==== e(  10) =    31.21716 eV ==== 
     psi = 0.015*[#   2]+0.015*[#   3]+0.015*[#   4]
    |psi|^2 = 0.046

 k =  -0.3437500000  0.4687500000 -0.2812500000
==== e(   1) =     0.79234 eV ==== 
     psi = 0.347*[#   1]+0.216*[#   2]+0.216*[#   3]+0.216*[#   4]
    |psi|^2 = 0.995
==== e(   2) =     8.06203 eV ==== 
     psi = 0.511*[#   1]+0.146*[#   2]+0.146*[#   3]+0.146*[#   4]
    |psi|^2 = 0.950
==== e(   3) =    17.56536 eV ==== 
     psi = 0.229*[#   2]+0.229*[#   3]+0.229*[#   4]+0.030*[#   1]
    |psi|^2 = 0.717
==== e(   4) =    19.22994 eV ==== 
     psi = 0.129*[#   2]+0.129*[#   3]+0.129*[#   4]+0.043*[#   1]
    |psi|^2 = 0.430
==== e(   5) =    20.13064 eV ==== 
     psi = 0.145*[#   2]+0.145*[#   3]+0.145*[#   4]+0.046*[#   1]
    |psi|^2 = 0.481
==== e(   6) =    23.28848 eV ==== 
     psi = 0.063*[#   2]+0.063*[#   3]+0.063*[#   4]+0.005*[#   1]
    |psi|^2 = 0.194
==== e(   7) =    25.12189 eV ==== 
     psi = 0.024*[#   2]+0.024*[#   3]+0.024*[#   4]+0.005*[#   1]
    |psi|^2 = 0.078
==== e(   8) =    27.07158 eV ==== 
     psi = 0.012*[#   2]+0.012*[#   3]+0.012*[#   4]+0.001*[#   1]
    |psi|^2 = 0.037
==== e(   9) =    29.42351 eV ==== 
     psi = 0.016*[#   2]+0.016*[#   3]+0.016*[#   4]+0.005*[#   1]
    |psi|^2 = 0.053
==== e(  10) =    33.03908 eV ==== 
     psi = 0.009*[#   2]+0.009*[#   3]+0.009*[#   4]
    |psi|^2 = 0.026

 k =  -0.4062500000  0.5312500000 -0.3437500000
==== e(   1) =     2.15232 eV ==== 
     psi = 0.360*[#   1]+0.211*[#   2]+0.211*[#   3]+0.211*[#   4]
    |psi|^2 = 0.994
==== e(   2) =     6.08281 eV ==== 
     psi = 0.522*[#   1]+0.150*[#   2]+0.150*[#   3]+0.150*[#   4]
    |psi|^2 = 0.974
==== e(   3) =    17.74420 eV ==== 
     psi = 0.212*[#   2]+0.212*[#   3]+0.212*[#   4]+0.015*[#   1]
    |psi|^2 = 0.652
==== e(   4) =    18.42183 eV ==== 
     psi = 0.176*[#   2]+0.176*[#   3]+0.176*[#   4]+0.055*[#   1]
    |psi|^2 = 0.584
==== e(   5) =    20.33843 eV ==== 
     psi = 0.126*[#   2]+0.126*[#   3]+0.126*[#   4]+0.030*[#   1]
    |psi|^2 = 0.409
==== e(   6) =    22.47829 eV ==== 
     psi = 0.074*[#   2]+0.074*[#   3]+0.074*[#   4]+0.005*[#   1]
    |psi|^2 = 0.228
==== e(   7) =    25.38075 eV ==== 
     psi = 0.020*[#   2]+0.020*[#   3]+0.020*[#   4]+0.003*[#   1]
    |psi|^2 = 0.064
==== e(   8) =    26.34066 eV ==== 
     psi = 0.007*[#   2]+0.007*[#   3]+0.007*[#   4]+0.002*[#   1]
    |psi|^2 = 0.021
==== e(   9) =    31.41636 eV ==== 
     psi = 0.009*[#   2]+0.009*[#   3]+0.009*[#   4]+0.002*[#   1]
    |psi|^2 = 0.030
==== e(  10) =    34.58427 eV ==== 
     psi = 0.002*[#   2]+0.002*[#   3]+0.002*[#   4]
    |psi|^2 = 0.006

 k =   0.5312500000 -0.4062500000  0.5937500000
==== e(   1) =     3.68128 eV ==== 
     psi = 0.251*[#   2]+0.251*[#   3]+0.251*[#   4]+0.242*[#   1]
    |psi|^2 = 0.994
==== e(   2) =     4.30676 eV ==== 
     psi = 0.651*[#   1]+0.110*[#   2]+0.110*[#   3]+0.110*[#   4]
    |psi|^2 = 0.982
==== e(   3) =    17.72864 eV ==== 
     psi = 0.171*[#   2]+0.171*[#   3]+0.171*[#   4]+0.028*[#   1]
    |psi|^2 = 0.541
==== e(   4) =    18.18358 eV ==== 
     psi = 0.231*[#   2]+0.231*[#   3]+0.231*[#   4]+0.042*[#   1]
    |psi|^2 = 0.734
==== e(   5) =    20.73080 eV ==== 
     psi = 0.113*[#   2]+0.113*[#   3]+0.113*[#   4]+0.022*[#   1]
    |psi|^2 = 0.362
==== e(   6) =    21.85312 eV ==== 
     psi = 0.083*[#   2]+0.083*[#   3]+0.083*[#   4]+0.007*[#   1]
    |psi|^2 = 0.257
==== e(   7) =    25.55980 eV ==== 
     psi = 0.019*[#   2]+0.019*[#   3]+0.019*[#   4]+0.005*[#   1]
    |psi|^2 = 0.062
==== e(   8) =    25.94440 eV ==== 
     psi = 0.005*[#   2]+0.005*[#   3]+0.005*[#   4]
    |psi|^2 = 0.014
==== e(   9) =    33.30127 eV ==== 
     psi = 0.003*[#   2]+0.003*[#   3]+0.003*[#   4]
    |psi|^2 = 0.008
==== e(  10) =    34.47839 eV ==== 
     psi = 0.001*[#   2]+0.001*[#   3]+0.001*[#   4]
    |psi|^2 = 0.005

 k =   0.4687500000 -0.3437500000  0.5312500000
==== e(   1) =     2.64825 eV ==== 
     psi = 0.362*[#   1]+0.210*[#   2]+0.210*[#   3]+0.210*[#   4]
    |psi|^2 = 0.993
==== e(   2) =     5.46292 eV ==== 
     psi = 0.526*[#   1]+0.151*[#   2]+0.151*[#   3]+0.151*[#   4]
    |psi|^2 = 0.979
==== e(   3) =    17.30721 eV ==== 
     psi = 0.202*[#   2]+0.202*[#   3]+0.202*[#   4]+0.049*[#   1]
    |psi|^2 = 0.654
==== e(   4) =    18.72695 eV ==== 
     psi = 0.200*[#   2]+0.200*[#   3]+0.200*[#   4]+0.027*[#   1]
    |psi|^2 = 0.626
==== e(   5) =    21.23840 eV ==== 
     psi = 0.146*[#   2]+0.146*[#   3]+0.146*[#   4]+0.005*[#   1]
    |psi|^2 = 0.444
==== e(   6) =    21.47975 eV ==== 
     psi = 0.047*[#   2]+0.047*[#   3]+0.047*[#   4]+0.021*[#   1]
    |psi|^2 = 0.161
==== e(   7) =    25.13235 eV ==== 
     psi = 0.013*[#   2]+0.013*[#   3]+0.013*[#   4]+0.005*[#   1]
    |psi|^2 = 0.044
==== e(   8) =    26.47182 eV ==== 
     psi = 0.011*[#   2]+0.011*[#   3]+0.011*[#   4]
    |psi|^2 = 0.033
==== e(   9) =    32.46875 eV ==== 
     psi = 0.009*[#   2]+0.009*[#   3]+0.009*[#   4]
    |psi|^2 = 0.026
==== e(  10) =    34.27537 eV ==== 

    |psi|^2 = 0.002

 k =   0.4062500000 -0.2812500000  0.4687500000
==== e(   1) =     1.22455 eV ==== 
     psi = 0.350*[#   1]+0.215*[#   2]+0.215*[#   3]+0.215*[#   4]
    |psi|^2 = 0.994
==== e(   2) =     7.38192 eV ==== 
     psi = 0.518*[#   1]+0.147*[#   2]+0.147*[#   3]+0.147*[#   4]
    |psi|^2 = 0.960
==== e(   3) =    17.05716 eV ==== 
     psi = 0.215*[#   2]+0.215*[#   3]+0.215*[#   4]+0.065*[#   1]
    |psi|^2 = 0.708
==== e(   4) =    19.47969 eV ==== 
     psi = 0.177*[#   2]+0.177*[#   3]+0.177*[#   4]+0.024*[#   1]
    |psi|^2 = 0.554
==== e(   5) =    21.11364 eV ==== 
     psi = 0.130*[#   2]+0.130*[#   3]+0.130*[#   4]+0.005*[#   1]
    |psi|^2 = 0.396
==== e(   6) =    22.10747 eV ==== 
     psi = 0.056*[#   2]+0.056*[#   3]+0.056*[#   4]+0.022*[#   1]
    |psi|^2 = 0.190
==== e(   7) =    24.80990 eV ==== 
     psi = 0.015*[#   2]+0.015*[#   3]+0.015*[#   4]+0.007*[#   1]
    |psi|^2 = 0.052
==== e(   8) =    27.19790 eV ==== 
     psi = 0.012*[#   2]+0.012*[#   3]+0.012*[#   4]
    |psi|^2 = 0.038
==== e(   9) =    30.37893 eV ==== 
     psi = 0.019*[#   2]+0.019*[#   3]+0.019*[#   4]+0.001*[#   1]
    |psi|^2 = 0.058
==== e(  10) =    33.08917 eV ==== 
     psi = 0.005*[#   2]+0.005*[#   3]+0.005*[#   4]
    |psi|^2 = 0.016

 k =   0.3437500000 -0.2187500000  0.4062500000
==== e(   1) =    -0.00438 eV ==== 
     psi = 0.349*[#   1]+0.215*[#   2]+0.215*[#   3]+0.215*[#   4]
    |psi|^2 = 0.995
==== e(   2) =     9.47312 eV ==== 
     psi = 0.483*[#   1]+0.147*[#   2]+0.147*[#   3]+0.147*[#   4]
    |psi|^2 = 0.925
==== e(   3) =    16.99353 eV ==== 
     psi = 0.216*[#   2]+0.216*[#   3]+0.216*[#   4]+0.087*[#   1]
    |psi|^2 = 0.735
==== e(   4) =    20.41474 eV ==== 
     psi = 0.168*[#   2]+0.168*[#   3]+0.168*[#   4]+0.025*[#   1]
    |psi|^2 = 0.529
==== e(   5) =    21.03584 eV ==== 
     psi = 0.114*[#   2]+0.114*[#   3]+0.114*[#   4]+0.007*[#   1]
    |psi|^2 = 0.350
==== e(   6) =    23.04166 eV ==== 
     psi = 0.049*[#   2]+0.049*[#   3]+0.049*[#   4]+0.019*[#   1]
    |psi|^2 = 0.167
==== e(   7) =    24.64130 eV ==== 
     psi = 0.020*[#   2]+0.020*[#   3]+0.020*[#   4]+0.012*[#   1]
    |psi|^2 = 0.073
==== e(   8) =    27.79758 eV ==== 
     psi = 0.026*[#   2]+0.026*[#   3]+0.026*[#   4]
    |psi|^2 = 0.077
==== e(   9) =    28.57598 eV ==== 
     psi = 0.023*[#   2]+0.023*[#   3]+0.023*[#   4]+0.003*[#   1]
    |psi|^2 = 0.073
==== e(  10) =    31.37141 eV ==== 
     psi = 0.009*[#   2]+0.009*[#   3]+0.009*[#   4]+0.002*[#   1]
    |psi|^2 = 0.028

 k =   0.2812500000 -0.1562500000  0.3437500000
==== e(   1) =    -1.02746 eV ==== 
     psi = 0.377*[#   1]+0.206*[#   2]+0.206*[#   3]+0.206*[#   4]
    |psi|^2 = 0.995
==== e(   2) =    11.72197 eV ==== 
     psi = 0.401*[#   1]+0.155*[#   2]+0.155*[#   3]+0.155*[#   4]
    |psi|^2 = 0.866
==== e(   3) =    17.12133 eV ==== 
     psi = 0.206*[#   2]+0.206*[#   3]+0.206*[#   4]+0.118*[#   1]
    |psi|^2 = 0.736
==== e(   4) =    21.10361 eV ==== 
     psi = 0.168*[#   2]+0.168*[#   3]+0.168*[#   4]+0.020*[#   1]
    |psi|^2 = 0.525
==== e(   5) =    21.54912 eV ==== 
     psi = 0.088*[#   2]+0.088*[#   3]+0.088*[#   4]+0.015*[#   1]
    |psi|^2 = 0.281
==== e(   6) =    24.13067 eV ==== 
     psi = 0.045*[#   2]+0.045*[#   3]+0.045*[#   4]+0.014*[#   1]
    |psi|^2 = 0.148
==== e(   7) =    24.60542 eV ==== 
     psi = 0.033*[#   2]+0.033*[#   3]+0.033*[#   4]+0.019*[#   1]
    |psi|^2 = 0.117
==== e(   8) =    26.40928 eV ==== 
     psi = 0.049*[#   2]+0.049*[#   3]+0.049*[#   4]+0.007*[#   1]
    |psi|^2 = 0.154
==== e(   9) =    28.57978 eV ==== 
     psi = 0.028*[#   2]+0.028*[#   3]+0.028*[#   4]
    |psi|^2 = 0.083
==== e(  10) =    30.18937 eV ==== 
     psi = 0.007*[#   1]+0.003*[#   2]+0.003*[#   3]+0.003*[#   4]
    |psi|^2 = 0.014

 k =   0.2187500000 -0.0937500000  0.2812500000
==== e(   1) =    -1.84067 eV ==== 
     psi = 0.445*[#   1]+0.183*[#   2]+0.183*[#   3]+0.183*[#   4]
    |psi|^2 = 0.995
==== e(   2) =    14.09867 eV ==== 
     psi = 0.262*[#   1]+0.168*[#   2]+0.168*[#   3]+0.168*[#   4]
    |psi|^2 = 0.767
==== e(   3) =    17.44481 eV ==== 
     psi = 0.184*[#   2]+0.184*[#   3]+0.184*[#   4]+0.161*[#   1]
    |psi|^2 = 0.714
==== e(   4) =    21.33308 eV ==== 
     psi = 0.114*[#   2]+0.114*[#   3]+0.114*[#   4]+0.019*[#   1]
    |psi|^2 = 0.362
==== e(   5) =    22.77369 eV ==== 
     psi = 0.128*[#   2]+0.128*[#   3]+0.128*[#   4]+0.020*[#   1]
    |psi|^2 = 0.404
==== e(   6) =    24.55466 eV ==== 
     psi = 0.079*[#   2]+0.079*[#   3]+0.079*[#   4]+0.007*[#   1]
    |psi|^2 = 0.245
==== e(   7) =    24.85954 eV ==== 
     psi = 0.053*[#   2]+0.053*[#   3]+0.053*[#   4]+0.006*[#   1]
    |psi|^2 = 0.166
==== e(   8) =    25.46262 eV ==== 
     psi = 0.038*[#   1]+0.022*[#   2]+0.022*[#   3]+0.022*[#   4]
    |psi|^2 = 0.105
==== e(   9) =    27.54001 eV ==== 
     psi = 0.029*[#   2]+0.029*[#   3]+0.029*[#   4]+0.004*[#   1]
    |psi|^2 = 0.091
==== e(  10) =    30.69595 eV ==== 
     psi = 0.007*[#   1]+0.004*[#   2]+0.004*[#   3]+0.004*[#   4]
    |psi|^2 = 0.020

 k =   0.1562500000 -0.0312500000  0.2187500000
==== e(   1) =    -2.43597 eV ==== 
     psi = 0.562*[#   1]+0.144*[#   2]+0.144*[#   3]+0.144*[#   4]
    |psi|^2 = 0.995
==== e(   2) =    16.51471 eV ==== 
     psi = 0.179*[#   2]+0.179*[#   3]+0.179*[#   4]+0.068*[#   1]
    |psi|^2 = 0.607
==== e(   3) =    18.02064 eV ==== 
     psi = 0.221*[#   1]+0.153*[#   2]+0.153*[#   3]+0.153*[#   4]
    |psi|^2 = 0.680
==== e(   4) =    21.55748 eV ==== 
     psi = 0.044*[#   2]+0.044*[#   3]+0.044*[#   4]+0.008*[#   1]
    |psi|^2 = 0.140
==== e(   5) =    23.17078 eV ==== 
     psi = 0.275*[#   2]+0.275*[#   3]+0.275*[#   4]+0.040*[#   1]
    |psi|^2 = 0.865
==== e(   6) =    24.63426 eV ==== 
     psi = 0.002*[#   2]+0.002*[#   3]+0.002*[#   4]+0.002*[#   1]
    |psi|^2 = 0.008
==== e(   7) =    24.68659 eV ==== 
     psi = 0.083*[#   2]+0.083*[#   3]+0.083*[#   4]+0.010*[#   1]
    |psi|^2 = 0.258
==== e(   8) =    25.87689 eV ==== 
     psi = 0.058*[#   2]+0.058*[#   3]+0.058*[#   4]+0.055*[#   1]
    |psi|^2 = 0.230
==== e(   9) =    27.08099 eV ==== 
     psi = 0.001*[#   1]
    |psi|^2 = 0.003
==== e(  10) =    30.31698 eV ==== 
     psi = 0.016*[#   2]+0.016*[#   3]+0.016*[#   4]+0.001*[#   1]
    |psi|^2 = 0.050

 k =   0.0937500000  0.0312500000  0.1562500000
==== e(   1) =    -2.80934 eV ==== 
     psi = 0.716*[#   1]+0.093*[#   2]+0.093*[#   3]+0.093*[#   4]
    |psi|^2 = 0.995
==== e(   2) =    18.24595 eV ==== 
     psi = 0.141*[#   2]+0.141*[#   3]+0.141*[#   4]+0.055*[#   1]
    |psi|^2 = 0.479
==== e(   3) =    19.42636 eV ==== 
     psi = 0.158*[#   2]+0.158*[#   3]+0.158*[#   4]+0.084*[#   1]
    |psi|^2 = 0.557
==== e(   4) =    21.22651 eV ==== 
     psi = 0.041*[#   2]+0.041*[#   3]+0.041*[#   4]+0.012*[#   1]
    |psi|^2 = 0.136
==== e(   5) =    23.01693 eV ==== 
     psi = 0.261*[#   2]+0.261*[#   3]+0.261*[#   4]+0.051*[#   1]
    |psi|^2 = 0.834
==== e(   6) =    24.28751 eV ==== 
     psi = 0.113*[#   2]+0.113*[#   3]+0.113*[#   4]+0.020*[#   1]
    |psi|^2 = 0.358
==== e(   7) =    24.95281 eV ==== 
     psi = 0.105*[#   2]+0.105*[#   3]+0.105*[#   4]+0.034*[#   1]
    |psi|^2 = 0.350
==== e(   8) =    26.11655 eV ==== 
     psi = 0.010*[#   2]+0.010*[#   3]+0.010*[#   4]+0.006*[#   1]
    |psi|^2 = 0.037
==== e(   9) =    28.07072 eV ==== 
     psi = 0.004*[#   2]+0.004*[#   3]+0.004*[#   4]+0.001*[#   1]
    |psi|^2 = 0.014
==== e(  10) =    28.14796 eV ==== 
     psi = 0.013*[#   2]+0.013*[#   3]+0.013*[#   4]+0.003*[#   1]
    |psi|^2 = 0.041

 k =  -0.0312500000  0.2812500000  0.0312500000
==== e(   1) =    -2.36135 eV ==== 
     psi = 0.536*[#   1]+0.153*[#   2]+0.153*[#   3]+0.153*[#   4]
    |psi|^2 = 0.995
==== e(   2) =    17.54479 eV ==== 
     psi = 0.160*[#   2]+0.160*[#   3]+0.160*[#   4]+0.024*[#   1]
    |psi|^2 = 0.504
==== e(   3) =    18.30667 eV ==== 
     psi = 0.243*[#   2]+0.243*[#   3]+0.243*[#   4]
    |psi|^2 = 0.728
==== e(   4) =    19.02256 eV ==== 
     psi = 0.071*[#   2]+0.071*[#   3]+0.071*[#   4]+0.023*[#   1]
    |psi|^2 = 0.235
==== e(   5) =    21.74631 eV ==== 
     psi = 0.337*[#   1]+0.150*[#   2]+0.150*[#   3]+0.150*[#   4]
    |psi|^2 = 0.787
==== e(   6) =    22.71098 eV ==== 
     psi = 0.036*[#   1]+0.013*[#   2]+0.013*[#   3]+0.013*[#   4]
    |psi|^2 = 0.076
==== e(   7) =    26.95870 eV ==== 
     psi = 0.073*[#   2]+0.073*[#   3]+0.073*[#   4]+0.002*[#   1]
    |psi|^2 = 0.220
==== e(   8) =    27.14566 eV ==== 
     psi = 0.080*[#   2]+0.080*[#   3]+0.080*[#   4]
    |psi|^2 = 0.240
==== e(   9) =    29.35959 eV ==== 

    |psi|^2 = 0.000
==== e(  10) =    30.06912 eV ==== 
     psi = 0.004*[#   2]+0.004*[#   3]+0.004*[#   4]
    |psi|^2 = 0.011

 k =  -0.0937500000  0.3437500000 -0.0312500000
==== e(   1) =    -1.91470 eV ==== 
     psi = 0.444*[#   1]+0.183*[#   2]+0.183*[#   3]+0.183*[#   4]
    |psi|^2 = 0.995
==== e(   2) =    15.91229 eV ==== 
     psi = 0.190*[#   2]+0.190*[#   3]+0.190*[#   4]+0.043*[#   1]
    |psi|^2 = 0.614
==== e(   3) =    17.29514 eV ==== 
     psi = 0.225*[#   2]+0.225*[#   3]+0.225*[#   4]+0.096*[#   1]
    |psi|^2 = 0.771
==== e(   4) =    19.23731 eV ==== 
     psi = 0.069*[#   2]+0.069*[#   3]+0.069*[#   4]+0.022*[#   1]
    |psi|^2 = 0.230
==== e(   5) =    21.06224 eV ==== 
     psi = 0.152*[#   1]+0.059*[#   2]+0.059*[#   3]+0.059*[#   4]
    |psi|^2 = 0.330
==== e(   6) =    21.80953 eV ==== 
     psi = 0.186*[#   1]+0.116*[#   2]+0.116*[#   3]+0.116*[#   4]
    |psi|^2 = 0.533
==== e(   7) =    27.63688 eV ==== 
     psi = 0.049*[#   2]+0.049*[#   3]+0.049*[#   4]+0.002*[#   1]
    |psi|^2 = 0.149
==== e(   8) =    27.92320 eV ==== 
     psi = 0.057*[#   2]+0.057*[#   3]+0.057*[#   4]+0.002*[#   1]
    |psi|^2 = 0.173
==== e(   9) =    29.32813 eV ==== 
     psi = 0.004*[#   2]+0.004*[#   3]+0.004*[#   4]
    |psi|^2 = 0.012
==== e(  10) =    31.97884 eV ==== 
     psi = 0.009*[#   2]+0.009*[#   3]+0.009*[#   4]
    |psi|^2 = 0.026

 k =  -0.1562500000  0.4062500000 -0.0937500000
==== e(   1) =    -1.24862 eV ==== 
     psi = 0.374*[#   1]+0.207*[#   2]+0.207*[#   3]+0.207*[#   4]
    |psi|^2 = 0.995
==== e(   2) =    13.55504 eV ==== 
     psi = 0.204*[#   2]+0.204*[#   3]+0.204*[#   4]+0.180*[#   1]
    |psi|^2 = 0.791
==== e(   3) =    16.82241 eV ==== 
     psi = 0.236*[#   2]+0.236*[#   3]+0.236*[#   4]+0.075*[#   1]
    |psi|^2 = 0.784
==== e(   4) =    19.23031 eV ==== 
     psi = 0.039*[#   2]+0.039*[#   3]+0.039*[#   4]+0.025*[#   1]
    |psi|^2 = 0.142
==== e(   5) =    19.66130 eV ==== 
     psi = 0.214*[#   1]+0.096*[#   2]+0.096*[#   3]+0.096*[#   4]
    |psi|^2 = 0.500
==== e(   6) =    22.80612 eV ==== 
     psi = 0.107*[#   2]+0.107*[#   3]+0.107*[#   4]+0.081*[#   1]
    |psi|^2 = 0.404
==== e(   7) =    27.30270 eV ==== 
     psi = 0.034*[#   2]+0.034*[#   3]+0.034*[#   4]+0.003*[#   1]
    |psi|^2 = 0.104
==== e(   8) =    27.74062 eV ==== 
     psi = 0.027*[#   2]+0.027*[#   3]+0.027*[#   4]+0.002*[#   1]
    |psi|^2 = 0.085
==== e(   9) =    30.29050 eV ==== 
     psi = 0.018*[#   2]+0.018*[#   3]+0.018*[#   4]
    |psi|^2 = 0.055
==== e(  10) =    31.60610 eV ==== 
     psi = 0.004*[#   2]+0.004*[#   3]+0.004*[#   4]+0.002*[#   1]
    |psi|^2 = 0.013

 k =  -0.2187500000  0.4687500000 -0.1562500000
==== e(   1) =    -0.36810 eV ==== 
     psi = 0.335*[#   1]+0.220*[#   2]+0.220*[#   3]+0.220*[#   4]
    |psi|^2 = 0.995
==== e(   2) =    11.24254 eV ==== 
     psi = 0.296*[#   1]+0.198*[#   2]+0.198*[#   3]+0.198*[#   4]
    |psi|^2 = 0.889
==== e(   3) =    16.56485 eV ==== 
     psi = 0.245*[#   2]+0.245*[#   3]+0.245*[#   4]+0.050*[#   1]
    |psi|^2 = 0.786
==== e(   4) =    18.30306 eV ==== 
     psi = 0.109*[#   1]+0.085*[#   2]+0.085*[#   3]+0.085*[#   4]
    |psi|^2 = 0.363
==== e(   5) =    19.23118 eV ==== 
     psi = 0.147*[#   1]+0.097*[#   2]+0.097*[#   3]+0.097*[#   4]
    |psi|^2 = 0.437
==== e(   6) =    24.29630 eV ==== 
     psi = 0.076*[#   2]+0.076*[#   3]+0.076*[#   4]+0.027*[#   1]
    |psi|^2 = 0.255
==== e(   7) =    26.25241 eV ==== 
     psi = 0.031*[#   2]+0.031*[#   3]+0.031*[#   4]+0.003*[#   1]
    |psi|^2 = 0.098
==== e(   8) =    27.78864 eV ==== 
     psi = 0.014*[#   2]+0.014*[#   3]+0.014*[#   4]+0.003*[#   1]
    |psi|^2 = 0.045
==== e(   9) =    30.35080 eV ==== 
     psi = 0.005*[#   2]+0.005*[#   3]+0.005*[#   4]+0.002*[#   1]
    |psi|^2 = 0.016
==== e(  10) =    32.12107 eV ==== 
     psi = 0.011*[#   2]+0.011*[#   3]+0.011*[#   4]
    |psi|^2 = 0.033

 k =  -0.2812500000  0.5312500000 -0.2187500000
==== e(   1) =     0.72025 eV ==== 
     psi = 0.321*[#   1]+0.225*[#   2]+0.225*[#   3]+0.225*[#   4]
    |psi|^2 = 0.995
==== e(   2) =     9.06158 eV ==== 
     psi = 0.377*[#   1]+0.188*[#   2]+0.188*[#   3]+0.188*[#   4]
    |psi|^2 = 0.942
==== e(   3) =    16.47993 eV ==== 
     psi = 0.240*[#   2]+0.240*[#   3]+0.240*[#   4]+0.018*[#   1]
    |psi|^2 = 0.738
==== e(   4) =    17.25035 eV ==== 
     psi = 0.154*[#   1]+0.139*[#   2]+0.139*[#   3]+0.139*[#   4]
    |psi|^2 = 0.570
==== e(   5) =    19.22829 eV ==== 
     psi = 0.100*[#   1]+0.094*[#   2]+0.094*[#   3]+0.094*[#   4]
    |psi|^2 = 0.381
==== e(   6) =    25.15333 eV ==== 
     psi = 0.044*[#   2]+0.044*[#   3]+0.044*[#   4]
    |psi|^2 = 0.133
==== e(   7) =    26.00776 eV ==== 
     psi = 0.046*[#   2]+0.046*[#   3]+0.046*[#   4]+0.009*[#   1]
    |psi|^2 = 0.147
==== e(   8) =    28.03032 eV ==== 
     psi = 0.004*[#   2]+0.004*[#   3]+0.004*[#   4]+0.003*[#   1]
    |psi|^2 = 0.015
==== e(   9) =    29.46672 eV ==== 
     psi = 0.003*[#   1]+0.002*[#   2]+0.002*[#   3]+0.002*[#   4]
    |psi|^2 = 0.010
==== e(  10) =    33.81547 eV ==== 
     psi = 0.006*[#   2]+0.006*[#   3]+0.006*[#   4]
    |psi|^2 = 0.019

 k =  -0.3437500000  0.5937500000 -0.2812500000
==== e(   1) =     2.00944 eV ==== 
     psi = 0.325*[#   1]+0.223*[#   2]+0.223*[#   3]+0.223*[#   4]
    |psi|^2 = 0.995
==== e(   2) =     7.03767 eV ==== 
     psi = 0.421*[#   1]+0.183*[#   2]+0.183*[#   3]+0.183*[#   4]
    |psi|^2 = 0.970
==== e(   3) =    16.23232 eV ==== 
     psi = 0.158*[#   2]+0.158*[#   3]+0.158*[#   4]+0.065*[#   1]
    |psi|^2 = 0.539
==== e(   4) =    16.72804 eV ==== 
     psi = 0.254*[#   2]+0.254*[#   3]+0.254*[#   4]+0.104*[#   1]
    |psi|^2 = 0.867
==== e(   5) =    19.39723 eV ==== 
     psi = 0.087*[#   2]+0.087*[#   3]+0.087*[#   4]+0.070*[#   1]
    |psi|^2 = 0.332
==== e(   6) =    24.34068 eV ==== 
     psi = 0.045*[#   2]+0.045*[#   3]+0.045*[#   4]+0.001*[#   1]
    |psi|^2 = 0.136
==== e(   7) =    27.01276 eV ==== 
     psi = 0.034*[#   2]+0.034*[#   3]+0.034*[#   4]
    |psi|^2 = 0.103
==== e(   8) =    28.56586 eV ==== 

    |psi|^2 = 0.003
==== e(   9) =    29.25822 eV ==== 
     psi = 0.006*[#   1]+0.003*[#   2]+0.003*[#   3]+0.003*[#   4]
    |psi|^2 = 0.014
==== e(  10) =    35.09208 eV ==== 

    |psi|^2 = 0.003

 k =   0.5937500000 -0.3437500000  0.6562500000
==== e(   1) =     3.48744 eV ==== 
     psi = 0.306*[#   1]+0.229*[#   2]+0.229*[#   3]+0.229*[#   4]
    |psi|^2 = 0.993
==== e(   2) =     5.19166 eV ==== 
     psi = 0.466*[#   1]+0.172*[#   2]+0.172*[#   3]+0.172*[#   4]
    |psi|^2 = 0.983
==== e(   3) =    15.57795 eV ==== 
     psi = 0.182*[#   2]+0.182*[#   3]+0.182*[#   4]+0.116*[#   1]
    |psi|^2 = 0.661
==== e(   4) =    16.99325 eV ==== 
     psi = 0.251*[#   2]+0.251*[#   3]+0.251*[#   4]+0.049*[#   1]
    |psi|^2 = 0.804
==== e(   5) =    19.75060 eV ==== 
     psi = 0.076*[#   2]+0.076*[#   3]+0.076*[#   4]+0.052*[#   1]
    |psi|^2 = 0.282
==== e(   6) =    23.65987 eV ==== 
     psi = 0.051*[#   2]+0.051*[#   3]+0.051*[#   4]+0.002*[#   1]
    |psi|^2 = 0.156
==== e(   7) =    27.03955 eV ==== 
     psi = 0.019*[#   2]+0.019*[#   3]+0.019*[#   4]
    |psi|^2 = 0.057
==== e(   8) =    28.59637 eV ==== 
     psi = 0.005*[#   2]+0.005*[#   3]+0.005*[#   4]
    |psi|^2 = 0.016
==== e(   9) =    30.91297 eV ==== 
     psi = 0.003*[#   2]+0.003*[#   3]+0.003*[#   4]+0.002*[#   1]
    |psi|^2 = 0.011
==== e(  10) =    34.45800 eV ==== 
     psi = 0.002*[#   2]+0.002*[#   3]+0.002*[#   4]
    |psi|^2 = 0.005

 k =   0.5312500000 -0.2812500000  0.5937500000
==== e(   1) =     3.48899 eV ==== 
     psi = 0.304*[#   1]+0.230*[#   2]+0.230*[#   3]+0.230*[#   4]
    |psi|^2 = 0.993
==== e(   2) =     5.18914 eV ==== 
     psi = 0.469*[#   1]+0.171*[#   2]+0.171*[#   3]+0.171*[#   4]
    |psi|^2 = 0.983
==== e(   3) =    15.07450 eV ==== 
     psi = 0.201*[#   2]+0.201*[#   3]+0.201*[#   4]+0.137*[#   1]
    |psi|^2 = 0.739
==== e(   4) =    17.49092 eV ==== 
     psi = 0.237*[#   2]+0.237*[#   3]+0.237*[#   4]+0.038*[#   1]
    |psi|^2 = 0.749
==== e(   5) =    20.28972 eV ==== 
     psi = 0.065*[#   2]+0.065*[#   3]+0.065*[#   4]+0.043*[#   1]
    |psi|^2 = 0.238
==== e(   6) =    23.15521 eV ==== 
     psi = 0.058*[#   2]+0.058*[#   3]+0.058*[#   4]+0.003*[#   1]
    |psi|^2 = 0.178
==== e(   7) =    26.67173 eV ==== 
     psi = 0.014*[#   2]+0.014*[#   3]+0.014*[#   4]
    |psi|^2 = 0.043
==== e(   8) =    28.98600 eV ==== 
     psi = 0.007*[#   2]+0.007*[#   3]+0.007*[#   4]
    |psi|^2 = 0.022
==== e(   9) =    32.05231 eV ==== 
     psi = 0.006*[#   2]+0.006*[#   3]+0.006*[#   4]
    |psi|^2 = 0.018
==== e(  10) =    32.96111 eV ==== 
     psi = 0.003*[#   2]+0.003*[#   3]+0.003*[#   4]
    |psi|^2 = 0.010

 k =   0.4687500000 -0.2187500000  0.5312500000
==== e(   1) =     2.01045 eV ==== 
     psi = 0.325*[#   1]+0.223*[#   2]+0.223*[#   3]+0.223*[#   4]
    |psi|^2 = 0.995
==== e(   2) =     7.03110 eV ==== 
     psi = 0.423*[#   1]+0.182*[#   2]+0.182*[#   3]+0.182*[#   4]
    |psi|^2 = 0.970
==== e(   3) =    14.76346 eV ==== 
     psi = 0.207*[#   2]+0.207*[#   3]+0.207*[#   4]+0.167*[#   1]
    |psi|^2 = 0.789
==== e(   4) =    18.18048 eV ==== 
     psi = 0.218*[#   2]+0.218*[#   3]+0.218*[#   4]+0.034*[#   1]
    |psi|^2 = 0.689
==== e(   5) =    21.01055 eV ==== 
     psi = 0.056*[#   2]+0.056*[#   3]+0.056*[#   4]+0.037*[#   1]
    |psi|^2 = 0.205
==== e(   6) =    22.83374 eV ==== 
     psi = 0.062*[#   2]+0.062*[#   3]+0.062*[#   4]+0.004*[#   1]
    |psi|^2 = 0.191
==== e(   7) =    26.31285 eV ==== 
     psi = 0.016*[#   2]+0.016*[#   3]+0.016*[#   4]+0.001*[#   1]
    |psi|^2 = 0.048
==== e(   8) =    29.43354 eV ==== 
     psi = 0.010*[#   2]+0.010*[#   3]+0.010*[#   4]
    |psi|^2 = 0.030
==== e(   9) =    30.20560 eV ==== 
     psi = 0.016*[#   2]+0.016*[#   3]+0.016*[#   4]
    |psi|^2 = 0.049
==== e(  10) =    33.00170 eV ==== 
     psi = 0.001*[#   2]+0.001*[#   3]+0.001*[#   4]
    |psi|^2 = 0.004

 k =   0.4062500000 -0.1562500000  0.4687500000
==== e(   1) =     0.71998 eV ==== 
     psi = 0.323*[#   1]+0.224*[#   2]+0.224*[#   3]+0.224*[#   4]
    |psi|^2 = 0.995
==== e(   2) =     9.04411 eV ==== 
     psi = 0.370*[#   1]+0.191*[#   2]+0.191*[#   3]+0.191*[#   4]
    |psi|^2 = 0.944
==== e(   3) =    14.65636 eV ==== 
     psi = 0.216*[#   1]+0.200*[#   2]+0.200*[#   3]+0.200*[#   4]
    |psi|^2 = 0.817
==== e(   4) =    19.05817 eV ==== 
     psi = 0.198*[#   2]+0.198*[#   3]+0.198*[#   4]+0.032*[#   1]
    |psi|^2 = 0.626
==== e(   5) =    21.89360 eV ==== 
     psi = 0.058*[#   2]+0.058*[#   3]+0.058*[#   4]+0.031*[#   1]
    |psi|^2 = 0.204
==== e(   6) =    22.70180 eV ==== 
     psi = 0.053*[#   2]+0.053*[#   3]+0.053*[#   4]+0.009*[#   1]
    |psi|^2 = 0.168
==== e(   7) =    26.03754 eV ==== 
     psi = 0.023*[#   2]+0.023*[#   3]+0.023*[#   4]+0.002*[#   1]
    |psi|^2 = 0.072
==== e(   8) =    27.92427 eV ==== 
     psi = 0.029*[#   2]+0.029*[#   3]+0.029*[#   4]+0.003*[#   1]
    |psi|^2 = 0.091
==== e(   9) =    30.02619 eV ==== 
     psi = 0.013*[#   2]+0.013*[#   3]+0.013*[#   4]
    |psi|^2 = 0.039
==== e(  10) =    32.13573 eV ==== 

    |psi|^2 = 0.004

 k =   0.3437500000 -0.0937500000  0.4062500000
==== e(   1) =    -0.36808 eV ==== 
     psi = 0.338*[#   1]+0.219*[#   2]+0.219*[#   3]+0.219*[#   4]
    |psi|^2 = 0.995
==== e(   2) =    11.19134 eV ==== 
     psi = 0.261*[#   1]+0.213*[#   2]+0.213*[#   3]+0.213*[#   4]
    |psi|^2 = 0.899
==== e(   3) =    14.77575 eV ==== 
     psi = 0.297*[#   1]+0.176*[#   2]+0.176*[#   3]+0.176*[#   4]
    |psi|^2 = 0.825
==== e(   4) =    20.11920 eV ==== 
     psi = 0.179*[#   2]+0.179*[#   3]+0.179*[#   4]+0.032*[#   1]
    |psi|^2 = 0.567
==== e(   5) =    22.59938 eV ==== 
     psi = 0.086*[#   2]+0.086*[#   3]+0.086*[#   4]
    |psi|^2 = 0.258
==== e(   6) =    23.05957 eV ==== 
     psi = 0.037*[#   1]+0.009*[#   2]+0.009*[#   3]+0.009*[#   4]
    |psi|^2 = 0.063
==== e(   7) =    25.66912 eV ==== 
     psi = 0.063*[#   2]+0.063*[#   3]+0.063*[#   4]
    |psi|^2 = 0.188
==== e(   8) =    26.25133 eV ==== 
     psi = 0.026*[#   2]+0.026*[#   3]+0.026*[#   4]+0.008*[#   1]
    |psi|^2 = 0.086
==== e(   9) =    29.28153 eV ==== 
     psi = 0.013*[#   2]+0.013*[#   3]+0.013*[#   4]+0.004*[#   1]
    |psi|^2 = 0.044
==== e(  10) =    32.20334 eV ==== 
     psi = 0.002*[#   2]+0.002*[#   3]+0.002*[#   4]
    |psi|^2 = 0.007

 k =   0.2812500000 -0.0312500000  0.3437500000
==== e(   1) =    -1.24866 eV ==== 
     psi = 0.380*[#   1]+0.205*[#   2]+0.205*[#   3]+0.205*[#   4]
    |psi|^2 = 0.995
==== e(   2) =    13.34394 eV ==== 
     psi = 0.250*[#   2]+0.250*[#   3]+0.250*[#   4]+0.069*[#   1]
    |psi|^2 = 0.818
==== e(   3) =    15.22701 eV ==== 
     psi = 0.430*[#   1]+0.129*[#   2]+0.129*[#   3]+0.129*[#   4]
    |psi|^2 = 0.818
==== e(   4) =    21.34172 eV ==== 
     psi = 0.169*[#   2]+0.169*[#   3]+0.169*[#   4]+0.031*[#   1]
    |psi|^2 = 0.539
==== e(   5) =    22.67389 eV ==== 
     psi = 0.026*[#   2]+0.026*[#   3]+0.026*[#   4]
    |psi|^2 = 0.080
==== e(   6) =    24.01428 eV ==== 
     psi = 0.092*[#   2]+0.092*[#   3]+0.092*[#   4]+0.010*[#   1]
    |psi|^2 = 0.287
==== e(   7) =    24.64135 eV ==== 
     psi = 0.050*[#   2]+0.050*[#   3]+0.050*[#   4]+0.030*[#   1]
    |psi|^2 = 0.180
==== e(   8) =    25.73556 eV ==== 
     psi = 0.038*[#   2]+0.038*[#   3]+0.038*[#   4]+0.002*[#   1]
    |psi|^2 = 0.116
==== e(   9) =    28.03144 eV ==== 
     psi = 0.013*[#   1]+0.011*[#   2]+0.011*[#   3]+0.011*[#   4]
    |psi|^2 = 0.046
==== e(  10) =    32.90371 eV ==== 
     psi = 0.003*[#   2]+0.003*[#   3]+0.003*[#   4]+0.001*[#   1]
    |psi|^2 = 0.011

 k =   0.2187500000  0.0312500000  0.2812500000
==== e(   1) =    -1.91506 eV ==== 
     psi = 0.452*[#   1]+0.181*[#   2]+0.181*[#   3]+0.181*[#   4]
    |psi|^2 = 0.995
==== e(   2) =    14.87076 eV ==== 
     psi = 0.218*[#   2]+0.218*[#   3]+0.218*[#   4]+0.071*[#   1]
    |psi|^2 = 0.725
==== e(   3) =    16.60495 eV ==== 
     psi = 0.341*[#   1]+0.140*[#   2]+0.140*[#   3]+0.140*[#   4]
    |psi|^2 = 0.762
==== e(   4) =    22.03125 eV ==== 
     psi = 0.057*[#   2]+0.057*[#   3]+0.057*[#   4]+0.007*[#   1]
    |psi|^2 = 0.178
==== e(   5) =    22.65312 eV ==== 
     psi = 0.177*[#   2]+0.177*[#   3]+0.177*[#   4]+0.030*[#   1]
    |psi|^2 = 0.561
==== e(   6) =    23.99433 eV ==== 
     psi = 0.093*[#   2]+0.093*[#   3]+0.093*[#   4]+0.001*[#   1]
    |psi|^2 = 0.280
==== e(   7) =    25.15143 eV ==== 
     psi = 0.060*[#   2]+0.060*[#   3]+0.060*[#   4]+0.002*[#   1]
    |psi|^2 = 0.180
==== e(   8) =    25.52450 eV ==== 
     psi = 0.043*[#   1]+0.015*[#   2]+0.015*[#   3]+0.015*[#   4]
    |psi|^2 = 0.087
==== e(   9) =    27.15377 eV ==== 
     psi = 0.016*[#   2]+0.016*[#   3]+0.016*[#   4]+0.015*[#   1]
    |psi|^2 = 0.062
==== e(  10) =    32.03096 eV ==== 
     psi = 0.008*[#   2]+0.008*[#   3]+0.008*[#   4]+0.003*[#   1]
    |psi|^2 = 0.028

 k =   0.1562500000  0.0937500000  0.2187500000
==== e(   1) =    -2.36147 eV ==== 
     psi = 0.544*[#   1]+0.150*[#   2]+0.150*[#   3]+0.150*[#   4]
    |psi|^2 = 0.995
==== e(   2) =    15.71794 eV ==== 
     psi = 0.230*[#   1]+0.146*[#   2]+0.146*[#   3]+0.146*[#   4]
    |psi|^2 = 0.668
==== e(   3) =    18.81405 eV ==== 
     psi = 0.187*[#   2]+0.187*[#   3]+0.187*[#   4]+0.069*[#   1]
    |psi|^2 = 0.630
==== e(   4) =    20.91550 eV ==== 
     psi = 0.104*[#   2]+0.104*[#   3]+0.104*[#   4]+0.032*[#   1]
    |psi|^2 = 0.344
==== e(   5) =    23.69354 eV ==== 
     psi = 0.219*[#   2]+0.219*[#   3]+0.219*[#   4]+0.008*[#   1]
    |psi|^2 = 0.664
==== e(   6) =    24.30485 eV ==== 
     psi = 0.058*[#   1]+0.041*[#   2]+0.041*[#   3]+0.041*[#   4]
    |psi|^2 = 0.181
==== e(   7) =    24.89709 eV ==== 
     psi = 0.005*[#   2]+0.005*[#   3]+0.005*[#   4]
    |psi|^2 = 0.014
==== e(   8) =    25.84723 eV ==== 
     psi = 0.095*[#   2]+0.095*[#   3]+0.095*[#   4]+0.019*[#   1]
    |psi|^2 = 0.303
==== e(   9) =    27.16687 eV ==== 
     psi = 0.003*[#   2]+0.003*[#   3]+0.003*[#   4]
    |psi|^2 = 0.010
==== e(  10) =    30.24969 eV ==== 
     psi = 0.014*[#   1]+0.009*[#   2]+0.009*[#   3]+0.009*[#   4]
    |psi|^2 = 0.042

 k =  -0.0312500000  0.4062500000  0.0312500000
==== e(   1) =    -1.54446 eV ==== 
     psi = 0.393*[#   1]+0.200*[#   2]+0.200*[#   3]+0.200*[#   4]
    |psi|^2 = 0.995
==== e(   2) =    16.16783 eV ==== 
     psi = 0.169*[#   2]+0.169*[#   3]+0.169*[#   4]+0.016*[#   1]
    |psi|^2 = 0.523
==== e(   3) =    17.03268 eV ==== 
     psi = 0.282*[#   2]+0.282*[#   3]+0.282*[#   4]
    |psi|^2 = 0.845
==== e(   4) =    17.65201 eV ==== 
     psi = 0.101*[#   2]+0.101*[#   3]+0.101*[#   4]+0.019*[#   1]
    |psi|^2 = 0.322
==== e(   5) =    19.35593 eV ==== 
     psi = 0.135*[#   1]+0.028*[#   2]+0.028*[#   3]+0.028*[#   4]
    |psi|^2 = 0.219
==== e(   6) =    20.79851 eV ==== 
     psi = 0.378*[#   1]+0.092*[#   2]+0.092*[#   3]+0.092*[#   4]
    |psi|^2 = 0.654
==== e(   7) =    29.31595 eV ==== 
     psi = 0.043*[#   2]+0.043*[#   3]+0.043*[#   4]
    |psi|^2 = 0.128
==== e(   8) =    29.32531 eV ==== 
     psi = 0.044*[#   2]+0.044*[#   3]+0.044*[#   4]
    |psi|^2 = 0.133
==== e(   9) =    30.30911 eV ==== 
     psi = 0.005*[#   2]+0.005*[#   3]+0.005*[#   4]
    |psi|^2 = 0.014
==== e(  10) =    33.07836 eV ==== 
     psi = 0.002*[#   2]+0.002*[#   3]+0.002*[#   4]
    |psi|^2 = 0.006

 k =  -0.0937500000  0.4687500000 -0.0312500000
==== e(   1) =    -0.95485 eV ==== 
     psi = 0.346*[#   1]+0.216*[#   2]+0.216*[#   3]+0.216*[#   4]
    |psi|^2 = 0.995
==== e(   2) =    14.65040 eV ==== 
     psi = 0.208*[#   2]+0.208*[#   3]+0.208*[#   4]+0.029*[#   1]
    |psi|^2 = 0.654
==== e(   3) =    16.12002 eV ==== 
     psi = 0.257*[#   2]+0.257*[#   3]+0.257*[#   4]+0.064*[#   1]
    |psi|^2 = 0.836
==== e(   4) =    17.79628 eV ==== 
     psi = 0.140*[#   1]+0.051*[#   2]+0.051*[#   3]+0.051*[#   4]
    |psi|^2 = 0.292
==== e(   5) =    18.05004 eV ==== 
     psi = 0.103*[#   1]+0.078*[#   2]+0.078*[#   3]+0.078*[#   4]
    |psi|^2 = 0.339
==== e(   6) =    20.85027 eV ==== 
     psi = 0.264*[#   1]+0.095*[#   2]+0.095*[#   3]+0.095*[#   4]
    |psi|^2 = 0.550
==== e(   7) =    29.25635 eV ==== 
     psi = 0.023*[#   2]+0.023*[#   3]+0.023*[#   4]
    |psi|^2 = 0.069
==== e(   8) =    30.12907 eV ==== 
     psi = 0.030*[#   2]+0.030*[#   3]+0.030*[#   4]
    |psi|^2 = 0.089
==== e(   9) =    31.33212 eV ==== 
     psi = 0.014*[#   2]+0.014*[#   3]+0.014*[#   4]
    |psi|^2 = 0.041
==== e(  10) =    33.95846 eV ==== 
     psi = 0.001*[#   2]+0.001*[#   3]+0.001*[#   4]
    |psi|^2 = 0.005

 k =  -0.1562500000  0.5312500000 -0.0937500000
==== e(   1) =    -0.14977 eV ==== 
     psi = 0.315*[#   1]+0.227*[#   2]+0.227*[#   3]+0.227*[#   4]
    |psi|^2 = 0.995
==== e(   2) =    12.42040 eV ==== 
     psi = 0.235*[#   2]+0.235*[#   3]+0.235*[#   4]+0.130*[#   1]
    |psi|^2 = 0.834
==== e(   3) =    15.72517 eV ==== 
     psi = 0.250*[#   2]+0.250*[#   3]+0.250*[#   4]+0.020*[#   1]
    |psi|^2 = 0.770
==== e(   4) =    16.50163 eV ==== 
     psi = 0.270*[#   1]+0.084*[#   2]+0.084*[#   3]+0.084*[#   4]
    |psi|^2 = 0.522
==== e(   5) =    18.22795 eV ==== 
     psi = 0.126*[#   1]+0.059*[#   2]+0.059*[#   3]+0.059*[#   4]
    |psi|^2 = 0.304
==== e(   6) =    21.91073 eV ==== 
     psi = 0.102*[#   1]+0.078*[#   2]+0.078*[#   3]+0.078*[#   4]
    |psi|^2 = 0.337
==== e(   7) =    28.33482 eV ==== 
     psi = 0.020*[#   2]+0.020*[#   3]+0.020*[#   4]
    |psi|^2 = 0.061
==== e(   8) =    30.30519 eV ==== 
     psi = 0.018*[#   2]+0.018*[#   3]+0.018*[#   4]
    |psi|^2 = 0.055
==== e(   9) =    32.75035 eV ==== 
     psi = 0.007*[#   2]+0.007*[#   3]+0.007*[#   4]
    |psi|^2 = 0.022
==== e(  10) =    33.17138 eV ==== 
     psi = 0.003*[#   2]+0.003*[#   3]+0.003*[#   4]
    |psi|^2 = 0.011

 k =  -0.2187500000  0.5937500000 -0.1562500000
==== e(   1) =     0.86403 eV ==== 
     psi = 0.301*[#   1]+0.231*[#   2]+0.231*[#   3]+0.231*[#   4]
    |psi|^2 = 0.995
==== e(   2) =    10.23246 eV ==== 
     psi = 0.232*[#   2]+0.232*[#   3]+0.232*[#   4]+0.224*[#   1]
    |psi|^2 = 0.921
==== e(   3) =    15.18523 eV ==== 
     psi = 0.137*[#   2]+0.137*[#   3]+0.137*[#   4]+0.120*[#   1]
    |psi|^2 = 0.531
==== e(   4) =    15.74590 eV ==== 
     psi = 0.239*[#   2]+0.239*[#   3]+0.239*[#   4]+0.179*[#   1]
    |psi|^2 = 0.898
==== e(   5) =    18.28158 eV ==== 
     psi = 0.118*[#   1]+0.061*[#   2]+0.061*[#   3]+0.061*[#   4]
    |psi|^2 = 0.303
==== e(   6) =    23.53447 eV ==== 
     psi = 0.048*[#   2]+0.048*[#   3]+0.048*[#   4]+0.035*[#   1]
    |psi|^2 = 0.179
==== e(   7) =    27.34449 eV ==== 
     psi = 0.021*[#   2]+0.021*[#   3]+0.021*[#   4]+0.001*[#   1]
    |psi|^2 = 0.065
==== e(   8) =    30.27551 eV ==== 
     psi = 0.012*[#   2]+0.012*[#   3]+0.012*[#   4]
    |psi|^2 = 0.035
==== e(   9) =    32.08138 eV ==== 

    |psi|^2 = 0.003
==== e(  10) =    34.62921 eV ==== 
     psi = 0.004*[#   2]+0.004*[#   3]+0.004*[#   4]
    |psi|^2 = 0.013

 k =  -0.2812500000  0.6562500000 -0.2187500000
==== e(   1) =     2.08020 eV ==== 
     psi = 0.298*[#   1]+0.232*[#   2]+0.232*[#   3]+0.232*[#   4]
    |psi|^2 = 0.995
==== e(   2) =     8.17754 eV ==== 
     psi = 0.296*[#   1]+0.222*[#   2]+0.222*[#   3]+0.222*[#   4]
    |psi|^2 = 0.961
==== e(   3) =    14.27333 eV ==== 
     psi = 0.209*[#   1]+0.147*[#   2]+0.147*[#   3]+0.147*[#   4]
    |psi|^2 = 0.649
==== e(   4) =    15.74757 eV ==== 
     psi = 0.267*[#   2]+0.267*[#   3]+0.267*[#   4]+0.080*[#   1]
    |psi|^2 = 0.882
==== e(   5) =    18.42871 eV ==== 
     psi = 0.091*[#   1]+0.061*[#   2]+0.061*[#   3]+0.061*[#   4]
    |psi|^2 = 0.275
==== e(   6) =    25.36070 eV ==== 
     psi = 0.030*[#   2]+0.030*[#   3]+0.030*[#   4]+0.011*[#   1]
    |psi|^2 = 0.101
==== e(   7) =    26.49895 eV ==== 
     psi = 0.023*[#   2]+0.023*[#   3]+0.023*[#   4]+0.002*[#   1]
    |psi|^2 = 0.070
==== e(   8) =    30.04132 eV ==== 
     psi = 0.006*[#   2]+0.006*[#   3]+0.006*[#   4]
    |psi|^2 = 0.020
==== e(   9) =    31.64028 eV ==== 
     psi = 0.002*[#   2]+0.002*[#   3]+0.002*[#   4]
    |psi|^2 = 0.005
==== e(  10) =    35.62029 eV ==== 

    |psi|^2 = 0.001

 k =   0.6562500000 -0.2812500000  0.7187500000
==== e(   1) =     3.48735 eV ==== 
     psi = 0.286*[#   1]+0.236*[#   2]+0.236*[#   3]+0.236*[#   4]
    |psi|^2 = 0.993
==== e(   2) =     6.28502 eV ==== 
     psi = 0.353*[#   1]+0.209*[#   2]+0.209*[#   3]+0.209*[#   4]
    |psi|^2 = 0.980
==== e(   3) =    13.50601 eV ==== 
     psi = 0.225*[#   1]+0.173*[#   2]+0.173*[#   3]+0.173*[#   4]
    |psi|^2 = 0.743
==== e(   4) =    15.98800 eV ==== 
     psi = 0.267*[#   2]+0.267*[#   3]+0.267*[#   4]+0.054*[#   1]
    |psi|^2 = 0.854
==== e(   5) =    18.73868 eV ==== 
     psi = 0.069*[#   1]+0.056*[#   2]+0.056*[#   3]+0.056*[#   4]
    |psi|^2 = 0.237
==== e(   6) =    25.65414 eV ==== 
     psi = 0.030*[#   2]+0.030*[#   3]+0.030*[#   4]
    |psi|^2 = 0.090
==== e(   7) =    27.30784 eV ==== 
     psi = 0.017*[#   2]+0.017*[#   3]+0.017*[#   4]+0.004*[#   1]
    |psi|^2 = 0.055
==== e(   8) =    29.75184 eV ==== 
     psi = 0.003*[#   2]+0.003*[#   3]+0.003*[#   4]+0.002*[#   1]
    |psi|^2 = 0.010
==== e(   9) =    31.65279 eV ==== 
     psi = 0.002*[#   2]+0.002*[#   3]+0.002*[#   4]
    |psi|^2 = 0.008
==== e(  10) =    34.58081 eV ==== 
     psi = 0.001*[#   2]+0.001*[#   3]+0.001*[#   4]
    |psi|^2 = 0.004

 k =   0.5937500000 -0.2187500000  0.6562500000
==== e(   1) =     4.50236 eV ==== 
     psi = 0.280*[#   2]+0.280*[#   3]+0.280*[#   4]+0.152*[#   1]
    |psi|^2 = 0.994
==== e(   2) =     5.14552 eV ==== 
     psi = 0.499*[#   1]+0.161*[#   2]+0.161*[#   3]+0.161*[#   4]
    |psi|^2 = 0.982
==== e(   3) =    12.93311 eV ==== 
     psi = 0.241*[#   1]+0.188*[#   2]+0.188*[#   3]+0.188*[#   4]
    |psi|^2 = 0.806
==== e(   4) =    16.42675 eV ==== 
     psi = 0.259*[#   2]+0.259*[#   3]+0.259*[#   4]+0.042*[#   1]
    |psi|^2 = 0.821
==== e(   5) =    19.23257 eV ==== 
     psi = 0.056*[#   1]+0.048*[#   2]+0.048*[#   3]+0.048*[#   4]
    |psi|^2 = 0.201
==== e(   6) =    25.11405 eV ==== 
     psi = 0.034*[#   2]+0.034*[#   3]+0.034*[#   4]
    |psi|^2 = 0.102
==== e(   7) =    28.14433 eV ==== 
     psi = 0.012*[#   2]+0.012*[#   3]+0.012*[#   4]
    |psi|^2 = 0.037
==== e(   8) =    30.36486 eV ==== 
     psi = 0.002*[#   2]+0.002*[#   3]+0.002*[#   4]+0.002*[#   1]
    |psi|^2 = 0.008
==== e(   9) =    31.79195 eV ==== 
     psi = 0.003*[#   2]+0.003*[#   3]+0.003*[#   4]
    |psi|^2 = 0.011
==== e(  10) =    32.54777 eV ==== 
     psi = 0.006*[#   2]+0.006*[#   3]+0.006*[#   4]
    |psi|^2 = 0.018

 k =   0.5312500000 -0.1562500000  0.5937500000
==== e(   1) =     3.00130 eV ==== 
     psi = 0.291*[#   1]+0.234*[#   2]+0.234*[#   3]+0.234*[#   4]
    |psi|^2 = 0.994
==== e(   2) =     6.87406 eV ==== 
     psi = 0.332*[#   1]+0.214*[#   2]+0.214*[#   3]+0.214*[#   4]
    |psi|^2 = 0.975
==== e(   3) =    12.56752 eV ==== 
     psi = 0.280*[#   1]+0.189*[#   2]+0.189*[#   3]+0.189*[#   4]
    |psi|^2 = 0.847
==== e(   4) =    17.05495 eV ==== 
     psi = 0.247*[#   2]+0.247*[#   3]+0.247*[#   4]+0.038*[#   1]
    |psi|^2 = 0.778
==== e(   5) =    19.91065 eV ==== 
     psi = 0.049*[#   1]+0.041*[#   2]+0.041*[#   3]+0.041*[#   4]
    |psi|^2 = 0.171
==== e(   6) =    24.72999 eV ==== 
     psi = 0.037*[#   2]+0.037*[#   3]+0.037*[#   4]+0.001*[#   1]
    |psi|^2 = 0.114
==== e(   7) =    27.91290 eV ==== 
     psi = 0.013*[#   2]+0.013*[#   3]+0.013*[#   4]
    |psi|^2 = 0.040
==== e(   8) =    29.88842 eV ==== 
     psi = 0.013*[#   2]+0.013*[#   3]+0.013*[#   4]
    |psi|^2 = 0.038
==== e(   9) =    31.74793 eV ==== 
     psi = 0.003*[#   2]+0.003*[#   3]+0.003*[#   4]
    |psi|^2 = 0.008
==== e(  10) =    32.35005 eV ==== 
     psi = 0.004*[#   2]+0.004*[#   3]+0.004*[#   4]+0.001*[#   1]
    |psi|^2 = 0.013

 k =   0.4687500000 -0.0937500000  0.5312500000
==== e(   1) =     1.65404 eV ==== 
     psi = 0.300*[#   1]+0.232*[#   2]+0.232*[#   3]+0.232*[#   4]
    |psi|^2 = 0.995
==== e(   2) =     8.77702 eV ==== 
     psi = 0.241*[#   1]+0.239*[#   2]+0.239*[#   3]+0.239*[#   4]
    |psi|^2 = 0.956
==== e(   3) =    12.43906 eV ==== 
     psi = 0.363*[#   1]+0.169*[#   2]+0.169*[#   3]+0.169*[#   4]
    |psi|^2 = 0.871
==== e(   4) =    17.87168 eV ==== 
     psi = 0.229*[#   2]+0.229*[#   3]+0.229*[#   4]+0.036*[#   1]
    |psi|^2 = 0.723
==== e(   5) =    20.76878 eV ==== 
     psi = 0.045*[#   1]+0.035*[#   2]+0.035*[#   3]+0.035*[#   4]
    |psi|^2 = 0.150
==== e(   6) =    24.50334 eV ==== 
     psi = 0.037*[#   2]+0.037*[#   3]+0.037*[#   4]+0.002*[#   1]
    |psi|^2 = 0.113
==== e(   7) =    27.30019 eV ==== 
     psi = 0.033*[#   2]+0.033*[#   3]+0.033*[#   4]
    |psi|^2 = 0.100
==== e(   8) =    28.03703 eV ==== 
     psi = 0.013*[#   2]+0.013*[#   3]+0.013*[#   4]+0.002*[#   1]
    |psi|^2 = 0.041
==== e(   9) =    31.04535 eV ==== 
     psi = 0.004*[#   2]+0.004*[#   3]+0.004*[#   4]
    |psi|^2 = 0.014
==== e(  10) =    33.52743 eV ==== 
     psi = 0.002*[#   2]+0.002*[#   3]+0.002*[#   4]
    |psi|^2 = 0.006

 k =   0.4062500000 -0.0312500000  0.4687500000
==== e(   1) =     0.50365 eV ==== 
     psi = 0.311*[#   1]+0.228*[#   2]+0.228*[#   3]+0.228*[#   4]
    |psi|^2 = 0.995
==== e(   2) =    10.67759 eV ==== 
     psi = 0.287*[#   2]+0.287*[#   3]+0.287*[#   4]+0.065*[#   1]
    |psi|^2 = 0.925
==== e(   3) =    12.68210 eV ==== 
     psi = 0.523*[#   1]+0.118*[#   2]+0.118*[#   3]+0.118*[#   4]
    |psi|^2 = 0.876
==== e(   4) =    18.87440 eV ==== 
     psi = 0.207*[#   2]+0.207*[#   3]+0.207*[#   4]+0.035*[#   1]
    |psi|^2 = 0.655
==== e(   5) =    21.79144 eV ==== 
     psi = 0.041*[#   1]+0.033*[#   2]+0.033*[#   3]+0.033*[#   4]
    |psi|^2 = 0.139
==== e(   6) =    24.33358 eV ==== 
     psi = 0.019*[#   2]+0.019*[#   3]+0.019*[#   4]+0.001*[#   1]
    |psi|^2 = 0.058
==== e(   7) =    25.77509 eV ==== 
     psi = 0.077*[#   2]+0.077*[#   3]+0.077*[#   4]+0.004*[#   1]
    |psi|^2 = 0.234
==== e(   8) =    27.23959 eV ==== 
     psi = 0.016*[#   2]+0.016*[#   3]+0.016*[#   4]
    |psi|^2 = 0.048
==== e(   9) =    29.88078 eV ==== 
     psi = 0.004*[#   2]+0.004*[#   3]+0.004*[#   4]+0.004*[#   1]
    |psi|^2 = 0.016
==== e(  10) =    34.51785 eV ==== 
     psi = 0.001*[#   2]+0.001*[#   3]+0.001*[#   4]
    |psi|^2 = 0.004

 k =   0.3437500000  0.0312500000  0.4062500000
==== e(   1) =    -0.44175 eV ==== 
     psi = 0.336*[#   1]+0.220*[#   2]+0.220*[#   3]+0.220*[#   4]
    |psi|^2 = 0.995
==== e(   2) =    11.94444 eV ==== 
     psi = 0.272*[#   2]+0.272*[#   3]+0.272*[#   4]+0.067*[#   1]
    |psi|^2 = 0.883
==== e(   3) =    13.91279 eV ==== 
     psi = 0.489*[#   1]+0.122*[#   2]+0.122*[#   3]+0.122*[#   4]
    |psi|^2 = 0.854
==== e(   4) =    20.05846 eV ==== 
     psi = 0.181*[#   2]+0.181*[#   3]+0.181*[#   4]+0.033*[#   1]
    |psi|^2 = 0.577
==== e(   5) =    22.92896 eV ==== 
     psi = 0.045*[#   2]+0.045*[#   3]+0.045*[#   4]+0.030*[#   1]
    |psi|^2 = 0.167
==== e(   6) =    23.45744 eV ==== 
     psi = 0.014*[#   2]+0.014*[#   3]+0.014*[#   4]+0.004*[#   1]
    |psi|^2 = 0.047
==== e(   7) =    25.06158 eV ==== 
     psi = 0.094*[#   2]+0.094*[#   3]+0.094*[#   4]+0.008*[#   1]
    |psi|^2 = 0.292
==== e(   8) =    26.42856 eV ==== 
     psi = 0.025*[#   2]+0.025*[#   3]+0.025*[#   4]
    |psi|^2 = 0.075
==== e(   9) =    28.95617 eV ==== 
     psi = 0.008*[#   1]+0.007*[#   2]+0.007*[#   3]+0.007*[#   4]
    |psi|^2 = 0.027
==== e(  10) =    33.75524 eV ==== 
     psi = 0.002*[#   2]+0.002*[#   3]+0.002*[#   4]
    |psi|^2 = 0.006

 k =   0.2812500000  0.0937500000  0.3437500000
==== e(   1) =    -1.17511 eV ==== 
     psi = 0.379*[#   1]+0.205*[#   2]+0.205*[#   3]+0.205*[#   4]
    |psi|^2 = 0.995
==== e(   2) =    12.58553 eV ==== 
     psi = 0.267*[#   1]+0.192*[#   2]+0.192*[#   3]+0.192*[#   4]
    |psi|^2 = 0.844
==== e(   3) =    16.08073 eV ==== 
     psi = 0.239*[#   1]+0.180*[#   2]+0.180*[#   3]+0.180*[#   4]
    |psi|^2 = 0.779
==== e(   4) =    21.38934 eV ==== 
     psi = 0.187*[#   2]+0.187*[#   3]+0.187*[#   4]+0.032*[#   1]
    |psi|^2 = 0.594
==== e(   5) =    21.95297 eV ==== 
     psi = 0.047*[#   2]+0.047*[#   3]+0.047*[#   4]+0.002*[#   1]
    |psi|^2 = 0.144
==== e(   6) =    24.17052 eV ==== 
     psi = 0.038*[#   2]+0.038*[#   3]+0.038*[#   4]+0.025*[#   1]
    |psi|^2 = 0.138
==== e(   7) =    25.05024 eV ==== 
     psi = 0.073*[#   2]+0.073*[#   3]+0.073*[#   4]
    |psi|^2 = 0.218
==== e(   8) =    25.56075 eV ==== 
     psi = 0.029*[#   2]+0.029*[#   3]+0.029*[#   4]+0.019*[#   1]
    |psi|^2 = 0.107
==== e(   9) =    28.38895 eV ==== 
     psi = 0.022*[#   2]+0.022*[#   3]+0.022*[#   4]+0.006*[#   1]
    |psi|^2 = 0.070
==== e(  10) =    31.39557 eV ==== 
     psi = 0.003*[#   1]+0.003*[#   2]+0.003*[#   3]+0.003*[#   4]
    |psi|^2 = 0.011

 k =   0.2187500000  0.1562500000  0.2812500000
==== e(   1) =    -1.69268 eV ==== 
     psi = 0.431*[#   1]+0.188*[#   2]+0.188*[#   3]+0.188*[#   4]
    |psi|^2 = 0.995
==== e(   2) =    13.23423 eV ==== 
     psi = 0.387*[#   1]+0.138*[#   2]+0.138*[#   3]+0.138*[#   4]
    |psi|^2 = 0.799
==== e(   3) =    18.39753 eV ==== 
     psi = 0.209*[#   2]+0.209*[#   3]+0.209*[#   4]+0.052*[#   1]
    |psi|^2 = 0.679
==== e(   4) =    20.58134 eV ==== 
     psi = 0.140*[#   2]+0.140*[#   3]+0.140*[#   4]+0.029*[#   1]
    |psi|^2 = 0.449
==== e(   5) =    22.88778 eV ==== 
     psi = 0.117*[#   2]+0.117*[#   3]+0.117*[#   4]+0.011*[#   1]
    |psi|^2 = 0.361
==== e(   6) =    24.09208 eV ==== 
     psi = 0.035*[#   1]+0.031*[#   2]+0.031*[#   3]+0.031*[#   4]
    |psi|^2 = 0.129
==== e(   7) =    25.07597 eV ==== 
     psi = 0.062*[#   2]+0.062*[#   3]+0.062*[#   4]+0.009*[#   1]
    |psi|^2 = 0.196
==== e(   8) =    25.85294 eV ==== 
     psi = 0.053*[#   2]+0.053*[#   3]+0.053*[#   4]+0.007*[#   1]
    |psi|^2 = 0.167
==== e(   9) =    27.98226 eV ==== 
     psi = 0.033*[#   2]+0.033*[#   3]+0.033*[#   4]
    |psi|^2 = 0.100
==== e(  10) =    29.32710 eV ==== 
     psi = 0.012*[#   1]+0.002*[#   2]+0.002*[#   3]+0.002*[#   4]
    |psi|^2 = 0.019

 k =  -0.0312500000  0.5312500000  0.0312500000
==== e(   1) =    -0.44113 eV ==== 
     psi = 0.320*[#   1]+0.225*[#   2]+0.225*[#   3]+0.225*[#   4]
    |psi|^2 = 0.995
==== e(   2) =    15.02847 eV ==== 
     psi = 0.167*[#   2]+0.167*[#   3]+0.167*[#   4]+0.006*[#   1]
    |psi|^2 = 0.508
==== e(   3) =    16.00387 eV ==== 
     psi = 0.305*[#   2]+0.305*[#   3]+0.305*[#   4]
    |psi|^2 = 0.916
==== e(   4) =    16.14578 eV ==== 
     psi = 0.200*[#   1]+0.046*[#   2]+0.046*[#   3]+0.046*[#   4]
    |psi|^2 = 0.339
==== e(   5) =    16.56398 eV ==== 
     psi = 0.123*[#   2]+0.123*[#   3]+0.123*[#   4]+0.073*[#   1]
    |psi|^2 = 0.444
==== e(   6) =    19.88386 eV ==== 
     psi = 0.353*[#   1]+0.061*[#   2]+0.061*[#   3]+0.061*[#   4]
    |psi|^2 = 0.535
==== e(   7) =    30.84058 eV ==== 
     psi = 0.011*[#   2]+0.011*[#   3]+0.011*[#   4]
    |psi|^2 = 0.032
==== e(   8) =    31.57976 eV ==== 
     psi = 0.025*[#   2]+0.025*[#   3]+0.025*[#   4]
    |psi|^2 = 0.076
==== e(   9) =    32.07715 eV ==== 
     psi = 0.016*[#   2]+0.016*[#   3]+0.016*[#   4]
    |psi|^2 = 0.047
==== e(  10) =    35.83721 eV ==== 

    |psi|^2 = 0.001

 k =  -0.0937500000  0.5937500000 -0.0312500000
==== e(   1) =     0.28631 eV ==== 
     psi = 0.301*[#   1]+0.231*[#   2]+0.231*[#   3]+0.231*[#   4]
    |psi|^2 = 0.995
==== e(   2) =    13.64016 eV ==== 
     psi = 0.219*[#   2]+0.219*[#   3]+0.219*[#   4]+0.011*[#   1]
    |psi|^2 = 0.669
==== e(   3) =    14.66013 eV ==== 
     psi = 0.185*[#   1]+0.105*[#   2]+0.105*[#   3]+0.105*[#   4]
    |psi|^2 = 0.499
==== e(   4) =    15.30410 eV ==== 
     psi = 0.231*[#   2]+0.231*[#   3]+0.231*[#   4]+0.212*[#   1]
    |psi|^2 = 0.905
==== e(   5) =    17.03314 eV ==== 
     psi = 0.097*[#   2]+0.097*[#   3]+0.097*[#   4]+0.027*[#   1]
    |psi|^2 = 0.319
==== e(   6) =    20.01850 eV ==== 
     psi = 0.229*[#   1]+0.065*[#   2]+0.065*[#   3]+0.065*[#   4]
    |psi|^2 = 0.424
==== e(   7) =    30.49582 eV ==== 
     psi = 0.011*[#   2]+0.011*[#   3]+0.011*[#   4]
    |psi|^2 = 0.033
==== e(   8) =    32.39545 eV ==== 
     psi = 0.016*[#   2]+0.016*[#   3]+0.016*[#   4]
    |psi|^2 = 0.049
==== e(   9) =    33.51933 eV ==== 
     psi = 0.009*[#   2]+0.009*[#   3]+0.009*[#   4]
    |psi|^2 = 0.026
==== e(  10) =    36.00661 eV ==== 

    |psi|^2 = 0.001

 k =  -0.1562500000  0.6562500000 -0.0937500000
==== e(   1) =     1.22308 eV ==== 
     psi = 0.291*[#   1]+0.235*[#   2]+0.235*[#   3]+0.235*[#   4]
    |psi|^2 = 0.995
==== e(   2) =    11.53640 eV ==== 
     psi = 0.261*[#   2]+0.261*[#   3]+0.261*[#   4]+0.075*[#   1]
    |psi|^2 = 0.857
==== e(   3) =    13.47945 eV ==== 
     psi = 0.320*[#   1]+0.097*[#   2]+0.097*[#   3]+0.097*[#   4]
    |psi|^2 = 0.609
==== e(   4) =    15.01149 eV ==== 
     psi = 0.263*[#   2]+0.263*[#   3]+0.263*[#   4]+0.117*[#   1]
    |psi|^2 = 0.907
==== e(   5) =    17.36442 eV ==== 
     psi = 0.090*[#   1]+0.056*[#   2]+0.056*[#   3]+0.056*[#   4]
    |psi|^2 = 0.258
==== e(   6) =    21.18513 eV ==== 
     psi = 0.085*[#   1]+0.052*[#   2]+0.052*[#   3]+0.052*[#   4]
    |psi|^2 = 0.242
==== e(   7) =    29.59100 eV ==== 
     psi = 0.012*[#   2]+0.012*[#   3]+0.012*[#   4]
    |psi|^2 = 0.037
==== e(   8) =    32.40019 eV ==== 
     psi = 0.010*[#   2]+0.010*[#   3]+0.010*[#   4]
    |psi|^2 = 0.029
==== e(   9) =    35.22102 eV ==== 
     psi = 0.004*[#   2]+0.004*[#   3]+0.004*[#   4]
    |psi|^2 = 0.011
==== e(  10) =    35.32398 eV ==== 

    |psi|^2 = 0.001

 k =  -0.2187500000  0.7187500000 -0.1562500000
==== e(   1) =     2.36294 eV ==== 
     psi = 0.284*[#   1]+0.237*[#   2]+0.237*[#   3]+0.237*[#   4]
    |psi|^2 = 0.994
==== e(   2) =     9.48110 eV ==== 
     psi = 0.260*[#   2]+0.260*[#   3]+0.260*[#   4]+0.157*[#   1]
    |psi|^2 = 0.938
==== e(   3) =    12.44354 eV ==== 
     psi = 0.348*[#   1]+0.124*[#   2]+0.124*[#   3]+0.124*[#   4]
    |psi|^2 = 0.721
==== e(   4) =    14.98926 eV ==== 
     psi = 0.272*[#   2]+0.272*[#   3]+0.272*[#   4]+0.078*[#   1]
    |psi|^2 = 0.894
==== e(   5) =    17.55874 eV ==== 
     psi = 0.090*[#   1]+0.049*[#   2]+0.049*[#   3]+0.049*[#   4]
    |psi|^2 = 0.235
==== e(   6) =    22.93476 eV ==== 
     psi = 0.029*[#   2]+0.029*[#   3]+0.029*[#   4]+0.029*[#   1]
    |psi|^2 = 0.117
==== e(   7) =    28.69833 eV ==== 
     psi = 0.014*[#   2]+0.014*[#   3]+0.014*[#   4]
    |psi|^2 = 0.042
==== e(   8) =    31.97644 eV ==== 
     psi = 0.006*[#   2]+0.006*[#   3]+0.006*[#   4]
    |psi|^2 = 0.018
==== e(   9) =    34.95306 eV ==== 

    |psi|^2 = 0.003
==== e(  10) =    36.08234 eV ==== 

    |psi|^2 = 0.001

 k =   0.7187500000 -0.2187500000  0.7812500000
==== e(   1) =     3.69378 eV ==== 
     psi = 0.268*[#   1]+0.241*[#   2]+0.241*[#   3]+0.241*[#   4]
    |psi|^2 = 0.992
==== e(   2) =     7.56036 eV ==== 
     psi = 0.246*[#   2]+0.246*[#   3]+0.246*[#   4]+0.233*[#   1]
    |psi|^2 = 0.971
==== e(   3) =    11.59646 eV ==== 
     psi = 0.349*[#   1]+0.151*[#   2]+0.151*[#   3]+0.151*[#   4]
    |psi|^2 = 0.800
==== e(   4) =    15.17127 eV ==== 
     psi = 0.274*[#   2]+0.274*[#   3]+0.274*[#   4]+0.057*[#   1]
    |psi|^2 = 0.879
==== e(   5) =    17.84451 eV ==== 
     psi = 0.074*[#   1]+0.045*[#   2]+0.045*[#   3]+0.045*[#   4]
    |psi|^2 = 0.208
==== e(   6) =    24.95109 eV ==== 
     psi = 0.016*[#   2]+0.016*[#   3]+0.016*[#   4]+0.010*[#   1]
    |psi|^2 = 0.057
==== e(   7) =    27.93656 eV ==== 
     psi = 0.016*[#   2]+0.016*[#   3]+0.016*[#   4]
    |psi|^2 = 0.049
==== e(   8) =    31.33824 eV ==== 
     psi = 0.004*[#   2]+0.004*[#   3]+0.004*[#   4]
    |psi|^2 = 0.013
==== e(   9) =    34.67400 eV ==== 

    |psi|^2 = 0.002
==== e(  10) =    35.02655 eV ==== 
     psi = 0.001*[#   2]+0.001*[#   3]+0.001*[#   4]
    |psi|^2 = 0.004

 k =   0.6562500000 -0.1562500000  0.7187500000
==== e(   1) =     5.16424 eV ==== 
     psi = 0.287*[#   2]+0.287*[#   3]+0.287*[#   4]+0.129*[#   1]
    |psi|^2 = 0.990
==== e(   2) =     5.84063 eV ==== 
     psi = 0.394*[#   1]+0.196*[#   2]+0.196*[#   3]+0.196*[#   4]
    |psi|^2 = 0.982
==== e(   3) =    10.95633 eV ==== 
     psi = 0.359*[#   1]+0.164*[#   2]+0.164*[#   3]+0.164*[#   4]
    |psi|^2 = 0.852
==== e(   4) =    15.54637 eV ==== 
     psi = 0.271*[#   2]+0.271*[#   3]+0.271*[#   4]+0.045*[#   1]
    |psi|^2 = 0.859
==== e(   5) =    18.29366 eV ==== 
     psi = 0.061*[#   1]+0.040*[#   2]+0.040*[#   3]+0.040*[#   4]
[...]
    |psi|^2 = 0.167
==== e(   7) =    26.63854 eV ==== 
     psi = 0.027*[#   2]+0.027*[#   3]+0.027*[#   4]
    |psi|^2 = 0.081
==== e(   8) =    27.71281 eV ==== 
     psi = 0.002*[#   2]+0.002*[#   3]+0.002*[#   4]
    |psi|^2 = 0.006
==== e(   9) =    30.07350 eV ==== 
     psi = 0.005*[#   2]+0.005*[#   3]+0.005*[#   4]+0.005*[#   1]
    |psi|^2 = 0.019
==== e(  10) =    35.23390 eV ==== 

    |psi|^2 = 0.001

 k =   0.5937500000 -0.3437500000  1.2812500000
==== e(   1) =     3.13972 eV ==== 
     psi = 0.308*[#   1]+0.228*[#   2]+0.228*[#   3]+0.228*[#   4]
    |psi|^2 = 0.994
==== e(   2) =     5.94378 eV ==== 
     psi = 0.410*[#   1]+0.190*[#   2]+0.190*[#   3]+0.190*[#   4]
    |psi|^2 = 0.980
==== e(   3) =    15.16820 eV ==== 
     psi = 0.190*[#   2]+0.190*[#   3]+0.190*[#   4]+0.056*[#   1]
    |psi|^2 = 0.627
==== e(   4) =    15.88815 eV ==== 
     psi = 0.236*[#   2]+0.236*[#   3]+0.236*[#   4]+0.180*[#   1]
    |psi|^2 = 0.889
==== e(   5) =    20.28584 eV ==== 
     psi = 0.077*[#   2]+0.077*[#   3]+0.077*[#   4]+0.030*[#   1]
    |psi|^2 = 0.262
==== e(   6) =    23.64407 eV ==== 
     psi = 0.040*[#   2]+0.040*[#   3]+0.040*[#   4]+0.005*[#   1]
    |psi|^2 = 0.123
==== e(   7) =    27.80815 eV ==== 
     psi = 0.023*[#   2]+0.023*[#   3]+0.023*[#   4]
    |psi|^2 = 0.070
==== e(   8) =    29.57286 eV ==== 
     psi = 0.002*[#   2]+0.002*[#   3]+0.002*[#   4]
    |psi|^2 = 0.007
==== e(   9) =    30.01538 eV ==== 
     psi = 0.004*[#   2]+0.004*[#   3]+0.004*[#   4]+0.003*[#   1]
    |psi|^2 = 0.013
==== e(  10) =    34.40792 eV ==== 

    |psi|^2 = 0.002

 k =   0.5312500000 -0.2812500000  1.2187500000
==== e(   1) =     4.11084 eV ==== 
     psi = 0.250*[#   1]+0.248*[#   2]+0.248*[#   3]+0.248*[#   4]
    |psi|^2 = 0.993
==== e(   2) =     5.80458 eV ==== 
     psi = 0.368*[#   1]+0.205*[#   2]+0.205*[#   3]+0.205*[#   4]
    |psi|^2 = 0.983
==== e(   3) =    13.43232 eV ==== 
     psi = 0.242*[#   2]+0.242*[#   3]+0.242*[#   4]+0.036*[#   1]
    |psi|^2 = 0.763
==== e(   4) =    14.32496 eV ==== 
     psi = 0.318*[#   1]+0.197*[#   2]+0.197*[#   3]+0.197*[#   4]
    |psi|^2 = 0.909
==== e(   5) =    22.02454 eV ==== 
     psi = 0.069*[#   2]+0.069*[#   3]+0.069*[#   4]+0.003*[#   1]
    |psi|^2 = 0.209
==== e(   6) =    22.78359 eV ==== 
     psi = 0.014*[#   1]+0.010*[#   2]+0.010*[#   3]+0.010*[#   4]
    |psi|^2 = 0.045
==== e(   7) =    28.79974 eV ==== 
     psi = 0.013*[#   2]+0.013*[#   3]+0.013*[#   4]+0.003*[#   1]
    |psi|^2 = 0.043
==== e(   8) =    30.13250 eV ==== 
     psi = 0.006*[#   2]+0.006*[#   3]+0.006*[#   4]
    |psi|^2 = 0.018
==== e(   9) =    32.15707 eV ==== 
     psi = 0.004*[#   2]+0.004*[#   3]+0.004*[#   4]
    |psi|^2 = 0.011
==== e(  10) =    32.81762 eV ==== 
     psi = 0.002*[#   1]
    |psi|^2 = 0.002

 k =   0.4687500000 -0.2187500000  1.1562500000
==== e(   1) =     5.24370 eV ==== 
     psi = 0.293*[#   2]+0.293*[#   3]+0.293*[#   4]+0.113*[#   1]
    |psi|^2 = 0.992
==== e(   2) =     5.89311 eV ==== 
     psi = 0.389*[#   1]+0.198*[#   2]+0.198*[#   3]+0.198*[#   4]
    |psi|^2 = 0.983
==== e(   3) =    11.49517 eV ==== 
     psi = 0.228*[#   2]+0.228*[#   3]+0.228*[#   4]+0.183*[#   1]
    |psi|^2 = 0.865
==== e(   4) =    13.27213 eV ==== 
     psi = 0.288*[#   1]+0.207*[#   2]+0.207*[#   3]+0.207*[#   4]
    |psi|^2 = 0.909
==== e(   5) =    21.70511 eV ==== 
     psi = 0.038*[#   2]+0.038*[#   3]+0.038*[#   4]+0.009*[#   1]
    |psi|^2 = 0.122
==== e(   6) =    24.22447 eV ==== 
     psi = 0.016*[#   2]+0.016*[#   3]+0.016*[#   4]+0.004*[#   1]
    |psi|^2 = 0.053
==== e(   7) =    28.43113 eV ==== 
     psi = 0.005*[#   2]+0.005*[#   3]+0.005*[#   4]
    |psi|^2 = 0.015
==== e(   8) =    29.51169 eV ==== 
     psi = 0.009*[#   2]+0.009*[#   3]+0.009*[#   4]+0.006*[#   1]
    |psi|^2 = 0.032
==== e(   9) =    33.20457 eV ==== 
     psi = 0.001*[#   2]+0.001*[#   3]+0.001*[#   4]
    |psi|^2 = 0.004
==== e(  10) =    35.13701 eV ==== 
     psi = 0.002*[#   2]+0.002*[#   3]+0.002*[#   4]
    |psi|^2 = 0.007

 k =  -0.3437500000 -1.2812500000  0.3437500000
==== e(   1) =     3.83320 eV ==== 
     psi = 0.275*[#   1]+0.239*[#   2]+0.239*[#   3]+0.239*[#   4]
    |psi|^2 = 0.992
==== e(   2) =     5.53699 eV ==== 
     psi = 0.407*[#   1]+0.192*[#   2]+0.192*[#   3]+0.192*[#   4]
    |psi|^2 = 0.983
==== e(   3) =    13.84303 eV ==== 
     psi = 0.212*[#   1]+0.177*[#   2]+0.177*[#   3]+0.177*[#   4]
    |psi|^2 = 0.743
==== e(   4) =    16.75769 eV ==== 
     psi = 0.290*[#   2]+0.290*[#   3]+0.290*[#   4]
    |psi|^2 = 0.871
==== e(   5) =    18.61977 eV ==== 
     psi = 0.095*[#   1]+0.035*[#   2]+0.035*[#   3]+0.035*[#   4]
    |psi|^2 = 0.200
==== e(   6) =    25.30313 eV ==== 
     psi = 0.037*[#   2]+0.037*[#   3]+0.037*[#   4]
    |psi|^2 = 0.111
==== e(   7) =    27.54888 eV ==== 
     psi = 0.016*[#   2]+0.016*[#   3]+0.016*[#   4]
    |psi|^2 = 0.050
==== e(   8) =    29.76024 eV ==== 
     psi = 0.004*[#   1]+0.001*[#   2]+0.001*[#   3]+0.001*[#   4]
    |psi|^2 = 0.007
==== e(   9) =    30.91029 eV ==== 
     psi = 0.003*[#   2]+0.003*[#   3]+0.003*[#   4]
    |psi|^2 = 0.009
==== e(  10) =    34.19694 eV ==== 
     psi = 0.003*[#   2]+0.003*[#   3]+0.003*[#   4]
    |psi|^2 = 0.009

 k =  -0.4062500000 -1.2187500000  0.2812500000
==== e(   1) =     4.69977 eV ==== 
     psi = 0.282*[#   2]+0.282*[#   3]+0.282*[#   4]+0.147*[#   1]
    |psi|^2 = 0.992
==== e(   2) =     5.35983 eV ==== 
     psi = 0.461*[#   1]+0.174*[#   2]+0.174*[#   3]+0.174*[#   4]
    |psi|^2 = 0.984
==== e(   3) =    12.58556 eV ==== 
     psi = 0.232*[#   1]+0.193*[#   2]+0.193*[#   3]+0.193*[#   4]
    |psi|^2 = 0.811
==== e(   4) =    15.23576 eV ==== 
     psi = 0.243*[#   2]+0.243*[#   3]+0.243*[#   4]+0.115*[#   1]
    |psi|^2 = 0.845
==== e(   5) =    19.76479 eV ==== 
     psi = 0.056*[#   2]+0.056*[#   3]+0.056*[#   4]+0.032*[#   1]
    |psi|^2 = 0.198
==== e(   6) =    25.06155 eV ==== 
     psi = 0.026*[#   2]+0.026*[#   3]+0.026*[#   4]+0.002*[#   1]
    |psi|^2 = 0.080
==== e(   7) =    28.36104 eV ==== 
     psi = 0.010*[#   2]+0.010*[#   3]+0.010*[#   4]+0.003*[#   1]
    |psi|^2 = 0.034
==== e(   8) =    30.14946 eV ==== 
     psi = 0.007*[#   2]+0.007*[#   3]+0.007*[#   4]
    |psi|^2 = 0.020
==== e(   9) =    32.39837 eV ==== 
     psi = 0.002*[#   1]+0.001*[#   2]+0.001*[#   3]+0.001*[#   4]
    |psi|^2 = 0.005
==== e(  10) =    33.14102 eV ==== 
     psi = 0.003*[#   2]+0.003*[#   3]+0.003*[#   4]
    |psi|^2 = 0.011

 k =  -0.3437500000 -1.1562500000  0.3437500000
==== e(   1) =     4.97796 eV ==== 
     psi = 0.290*[#   2]+0.290*[#   3]+0.290*[#   4]+0.124*[#   1]
    |psi|^2 = 0.993
==== e(   2) =     5.61632 eV ==== 
     psi = 0.434*[#   1]+0.182*[#   2]+0.182*[#   3]+0.182*[#   4]
    |psi|^2 = 0.980
==== e(   3) =    11.29652 eV ==== 
     psi = 0.343*[#   1]+0.169*[#   2]+0.169*[#   3]+0.169*[#   4]
    |psi|^2 = 0.850
==== e(   4) =    16.32935 eV ==== 
     psi = 0.300*[#   2]+0.300*[#   3]+0.300*[#   4]
    |psi|^2 = 0.899
==== e(   5) =    18.17569 eV ==== 
     psi = 0.088*[#   1]+0.012*[#   2]+0.012*[#   3]+0.012*[#   4]
    |psi|^2 = 0.125
==== e(   6) =    26.91394 eV ==== 
     psi = 0.025*[#   2]+0.025*[#   3]+0.025*[#   4]
    |psi|^2 = 0.075
==== e(   7) =    28.01679 eV ==== 
     psi = 0.008*[#   2]+0.008*[#   3]+0.008*[#   4]+0.002*[#   1]
    |psi|^2 = 0.026
==== e(   8) =    30.05227 eV ==== 
     psi = 0.002*[#   2]+0.002*[#   3]+0.002*[#   4]+0.001*[#   1]
    |psi|^2 = 0.008
==== e(   9) =    31.99552 eV ==== 
     psi = 0.007*[#   2]+0.007*[#   3]+0.007*[#   4]
    |psi|^2 = 0.022
==== e(  10) =    33.99787 eV ==== 
     psi = 0.002*[#   2]+0.002*[#   3]+0.002*[#   4]+0.001*[#   1]
    |psi|^2 = 0.006

 k =  -0.4062500000  0.4062500000  0.4062500000
==== e(   1) =     1.51012 eV ==== 
     psi = 0.377*[#   1]+0.205*[#   2]+0.205*[#   3]+0.205*[#   4]
    |psi|^2 = 0.994
==== e(   2) =     6.56583 eV ==== 
     psi = 0.589*[#   1]+0.125*[#   2]+0.125*[#   3]+0.125*[#   4]
    |psi|^2 = 0.965
==== e(   3) =    19.67032 eV ==== 
     psi = 0.189*[#   2]+0.189*[#   3]+0.189*[#   4]
    |psi|^2 = 0.567
==== e(   4) =    19.67032 eV ==== 
     psi = 0.189*[#   2]+0.189*[#   3]+0.189*[#   4]
    |psi|^2 = 0.567
==== e(   5) =    21.17170 eV ==== 
     psi = 0.130*[#   2]+0.130*[#   3]+0.130*[#   4]
    |psi|^2 = 0.389
==== e(   6) =    21.17170 eV ==== 
     psi = 0.130*[#   2]+0.130*[#   3]+0.130*[#   4]
    |psi|^2 = 0.389
==== e(   7) =    23.48500 eV ==== 
     psi = 0.016*[#   1]
    |psi|^2 = 0.018
==== e(   8) =    25.24483 eV ==== 
     psi = 0.015*[#   1]
    |psi|^2 = 0.016
==== e(   9) =    32.80200 eV ==== 
     psi = 0.011*[#   2]+0.011*[#   3]+0.011*[#   4]
    |psi|^2 = 0.033
==== e(  10) =    32.80200 eV ==== 
     psi = 0.011*[#   2]+0.011*[#   3]+0.011*[#   4]
    |psi|^2 = 0.033

 k =  -0.4687500000  0.4687500000  0.3437500000
==== e(   1) =     2.08138 eV ==== 
     psi = 0.370*[#   1]+0.208*[#   2]+0.208*[#   3]+0.208*[#   4]
    |psi|^2 = 0.993
==== e(   2) =     6.01522 eV ==== 
     psi = 0.548*[#   1]+0.142*[#   2]+0.142*[#   3]+0.142*[#   4]
    |psi|^2 = 0.973
==== e(   3) =    17.78549 eV ==== 
     psi = 0.203*[#   2]+0.203*[#   3]+0.203*[#   4]+0.040*[#   1]
    |psi|^2 = 0.650
==== e(   4) =    19.67197 eV ==== 
     psi = 0.196*[#   2]+0.196*[#   3]+0.196*[#   4]
    |psi|^2 = 0.589
==== e(   5) =    21.18333 eV ==== 
     psi = 0.121*[#   2]+0.121*[#   3]+0.121*[#   4]
    |psi|^2 = 0.364
==== e(   6) =    21.25937 eV ==== 
     psi = 0.087*[#   2]+0.087*[#   3]+0.087*[#   4]+0.025*[#   1]
    |psi|^2 = 0.288
==== e(   7) =    24.38836 eV ==== 
     psi = 0.010*[#   1]+0.006*[#   2]+0.006*[#   3]+0.006*[#   4]
    |psi|^2 = 0.028
==== e(   8) =    26.09543 eV ==== 
     psi = 0.011*[#   2]+0.011*[#   3]+0.011*[#   4]+0.003*[#   1]
    |psi|^2 = 0.036
==== e(   9) =    32.33606 eV ==== 
     psi = 0.012*[#   2]+0.012*[#   3]+0.012*[#   4]
    |psi|^2 = 0.037
==== e(  10) =    33.88228 eV ==== 
     psi = 0.002*[#   2]+0.002*[#   3]+0.002*[#   4]
    |psi|^2 = 0.007

 k =   0.4687500000 -0.4687500000  1.2812500000
==== e(   1) =     2.85998 eV ==== 
     psi = 0.335*[#   1]+0.220*[#   2]+0.220*[#   3]+0.220*[#   4]
    |psi|^2 = 0.993
==== e(   2) =     5.66810 eV ==== 
     psi = 0.471*[#   1]+0.169*[#   2]+0.169*[#   3]+0.169*[#   4]
    |psi|^2 = 0.979
==== e(   3) =    15.52686 eV ==== 
     psi = 0.203*[#   2]+0.203*[#   3]+0.203*[#   4]+0.127*[#   1]
    |psi|^2 = 0.736
==== e(   4) =    18.36697 eV ==== 
     psi = 0.245*[#   2]+0.245*[#   3]+0.245*[#   4]
    |psi|^2 = 0.734
==== e(   5) =    20.28531 eV ==== 
     psi = 0.059*[#   1]+0.049*[#   2]+0.049*[#   3]+0.049*[#   4]
    |psi|^2 = 0.205
==== e(   6) =    22.89391 eV ==== 
     psi = 0.075*[#   2]+0.075*[#   3]+0.075*[#   4]
    |psi|^2 = 0.224
==== e(   7) =    25.87205 eV ==== 
     psi = 0.011*[#   2]+0.011*[#   3]+0.011*[#   4]+0.003*[#   1]
    |psi|^2 = 0.035
==== e(   8) =    28.41730 eV ==== 
     psi = 0.009*[#   2]+0.009*[#   3]+0.009*[#   4]
    |psi|^2 = 0.028
==== e(   9) =    32.04131 eV ==== 
     psi = 0.012*[#   2]+0.012*[#   3]+0.012*[#   4]
    |psi|^2 = 0.035
==== e(  10) =    33.19447 eV ==== 

    |psi|^2 = 0.001

 k =   0.4062500000 -0.4062500000  1.2187500000
==== e(   1) =     3.83709 eV ==== 
     psi = 0.270*[#   1]+0.241*[#   2]+0.241*[#   3]+0.241*[#   4]
    |psi|^2 = 0.993
==== e(   2) =     5.52977 eV ==== 
     psi = 0.413*[#   1]+0.190*[#   2]+0.190*[#   3]+0.190*[#   4]
    |psi|^2 = 0.982
==== e(   3) =    13.33415 eV ==== 
     psi = 0.230*[#   1]+0.191*[#   2]+0.191*[#   3]+0.191*[#   4]
    |psi|^2 = 0.803
==== e(   4) =    17.25404 eV ==== 
     psi = 0.279*[#   2]+0.279*[#   3]+0.279*[#   4]
    |psi|^2 = 0.836
==== e(   5) =    19.18223 eV ==== 
     psi = 0.079*[#   1]+0.026*[#   2]+0.026*[#   3]+0.026*[#   4]
    |psi|^2 = 0.157
==== e(   6) =    24.80792 eV ==== 
     psi = 0.043*[#   2]+0.043*[#   3]+0.043*[#   4]
    |psi|^2 = 0.129
==== e(   7) =    27.47527 eV ==== 
     psi = 0.010*[#   2]+0.010*[#   3]+0.010*[#   4]
    |psi|^2 = 0.030
==== e(   8) =    31.13740 eV ==== 
     psi = 0.005*[#   2]+0.005*[#   3]+0.005*[#   4]+0.002*[#   1]
    |psi|^2 = 0.017
==== e(   9) =    31.32890 eV ==== 

    |psi|^2 = 0.002
==== e(  10) =    31.92978 eV ==== 
     psi = 0.010*[#   2]+0.010*[#   3]+0.010*[#   4]
    |psi|^2 = 0.029

 k =  -0.4062500000  0.5312500000  0.4062500000
==== e(   1) =     2.57732 eV ==== 
     psi = 0.373*[#   1]+0.207*[#   2]+0.207*[#   3]+0.207*[#   4]
    |psi|^2 = 0.993
==== e(   2) =     5.39485 eV ==== 
     psi = 0.548*[#   1]+0.143*[#   2]+0.143*[#   3]+0.143*[#   4]
    |psi|^2 = 0.978
==== e(   3) =    18.61158 eV ==== 
     psi = 0.229*[#   2]+0.229*[#   3]+0.229*[#   4]
    |psi|^2 = 0.686
==== e(   4) =    18.73192 eV ==== 
     psi = 0.151*[#   2]+0.151*[#   3]+0.151*[#   4]+0.028*[#   1]
    |psi|^2 = 0.480
==== e(   5) =    20.16120 eV ==== 
     psi = 0.134*[#   2]+0.134*[#   3]+0.134*[#   4]+0.037*[#   1]
    |psi|^2 = 0.440
==== e(   6) =    22.12087 eV ==== 
     psi = 0.096*[#   2]+0.096*[#   3]+0.096*[#   4]
    |psi|^2 = 0.289
==== e(   7) =    24.92974 eV ==== 
     psi = 0.015*[#   2]+0.015*[#   3]+0.015*[#   4]+0.005*[#   1]
    |psi|^2 = 0.051
==== e(   8) =    25.46211 eV ==== 
     psi = 0.005*[#   1]+0.004*[#   2]+0.004*[#   3]+0.004*[#   4]
    |psi|^2 = 0.018
==== e(   9) =    32.56700 eV ==== 
     psi = 0.007*[#   2]+0.007*[#   3]+0.007*[#   4]
    |psi|^2 = 0.021
==== e(  10) =    34.85446 eV ==== 

    |psi|^2 = 0.003

 k =   0.5312500000 -0.4062500000  1.3437500000
==== e(   1) =     3.27884 eV ==== 
     psi = 0.332*[#   1]+0.220*[#   2]+0.220*[#   3]+0.220*[#   4]
    |psi|^2 = 0.993
==== e(   2) =     4.98193 eV ==== 
     psi = 0.511*[#   1]+0.157*[#   2]+0.157*[#   3]+0.157*[#   4]
    |psi|^2 = 0.983
==== e(   3) =    16.83032 eV ==== 
     psi = 0.193*[#   2]+0.193*[#   3]+0.193*[#   4]+0.027*[#   1]
    |psi|^2 = 0.607
==== e(   4) =    17.46993 eV ==== 
     psi = 0.219*[#   2]+0.219*[#   3]+0.219*[#   4]+0.096*[#   1]
    |psi|^2 = 0.753
==== e(   5) =    21.21556 eV ==== 
     psi = 0.123*[#   2]+0.123*[#   3]+0.123*[#   4]+0.007*[#   1]
    |psi|^2 = 0.378
==== e(   6) =    21.83529 eV ==== 
     psi = 0.043*[#   2]+0.043*[#   3]+0.043*[#   4]+0.019*[#   1]
    |psi|^2 = 0.148
==== e(   7) =    26.24027 eV ==== 
     psi = 0.022*[#   2]+0.022*[#   3]+0.022*[#   4]+0.001*[#   1]
    |psi|^2 = 0.066
==== e(   8) =    27.08243 eV ==== 
     psi = 0.005*[#   2]+0.005*[#   3]+0.005*[#   4]
    |psi|^2 = 0.016
==== e(   9) =    32.24780 eV ==== 
     psi = 0.005*[#   2]+0.005*[#   3]+0.005*[#   4]
    |psi|^2 = 0.017
==== e(  10) =    34.26511 eV ==== 

    |psi|^2 = 0.003

 k =   0.4687500000 -0.3437500000  1.2812500000
==== e(   1) =     4.16076 eV ==== 
     psi = 0.271*[#   2]+0.271*[#   3]+0.271*[#   4]+0.181*[#   1]
    |psi|^2 = 0.994
==== e(   2) =     4.79986 eV ==== 
     psi = 0.548*[#   1]+0.145*[#   2]+0.145*[#   3]+0.145*[#   4]
    |psi|^2 = 0.983
==== e(   3) =    14.66307 eV ==== 
     psi = 0.204*[#   2]+0.204*[#   3]+0.204*[#   4]+0.121*[#   1]
    |psi|^2 = 0.734
==== e(   4) =    16.26084 eV ==== 
     psi = 0.231*[#   2]+0.231*[#   3]+0.231*[#   4]+0.112*[#   1]
    |psi|^2 = 0.804
==== e(   5) =    20.75733 eV ==== 
     psi = 0.071*[#   2]+0.071*[#   3]+0.071*[#   4]+0.023*[#   1]
    |psi|^2 = 0.236
==== e(   6) =    23.07572 eV ==== 
     psi = 0.043*[#   2]+0.043*[#   3]+0.043*[#   4]+0.006*[#   1]
    |psi|^2 = 0.135
==== e(   7) =    27.78570 eV ==== 
     psi = 0.017*[#   2]+0.017*[#   3]+0.017*[#   4]
    |psi|^2 = 0.051
==== e(   8) =    29.72571 eV ==== 
     psi = 0.005*[#   2]+0.005*[#   3]+0.005*[#   4]
    |psi|^2 = 0.014
==== e(   9) =    31.32434 eV ==== 
     psi = 0.004*[#   2]+0.004*[#   3]+0.004*[#   4]
    |psi|^2 = 0.012
==== e(  10) =    32.96363 eV ==== 
     psi = 0.003*[#   2]+0.003*[#   3]+0.003*[#   4]+0.002*[#   1]
    |psi|^2 = 0.010

 k =  -0.4062500000 -1.3437500000  0.4062500000
==== e(   1) =     3.88599 eV ==== 
     psi = 0.260*[#   2]+0.260*[#   3]+0.260*[#   4]+0.214*[#   1]
    |psi|^2 = 0.994
==== e(   2) =     4.51918 eV ==== 
     psi = 0.599*[#   1]+0.128*[#   2]+0.128*[#   3]+0.128*[#   4]
    |psi|^2 = 0.983
==== e(   3) =    15.97143 eV ==== 
     psi = 0.186*[#   2]+0.186*[#   3]+0.186*[#   4]+0.111*[#   1]
    |psi|^2 = 0.668
==== e(   4) =    17.80619 eV ==== 
     psi = 0.260*[#   2]+0.260*[#   3]+0.260*[#   4]
    |psi|^2 = 0.780
==== e(   5) =    19.67911 eV ==== 
     psi = 0.069*[#   1]+0.064*[#   2]+0.064*[#   3]+0.064*[#   4]
    |psi|^2 = 0.262
==== e(   6) =    23.33146 eV ==== 
     psi = 0.065*[#   2]+0.065*[#   3]+0.065*[#   4]
    |psi|^2 = 0.196
==== e(   7) =    26.30316 eV ==== 
     psi = 0.014*[#   2]+0.014*[#   3]+0.014*[#   4]+0.002*[#   1]
    |psi|^2 = 0.043
==== e(   8) =    27.90441 eV ==== 
     psi = 0.008*[#   2]+0.008*[#   3]+0.008*[#   4]
    |psi|^2 = 0.023
==== e(   9) =    31.98241 eV ==== 
     psi = 0.002*[#   2]+0.002*[#   3]+0.002*[#   4]+0.001*[#   1]
    |psi|^2 = 0.008
==== e(  10) =    34.17305 eV ==== 
     psi = 0.003*[#   2]+0.003*[#   3]+0.003*[#   4]
    |psi|^2 = 0.010

 k =  -0.4687500000  0.4687500000  0.4687500000
==== e(   1) =     2.99825 eV ==== 
     psi = 0.381*[#   1]+0.204*[#   2]+0.204*[#   3]+0.204*[#   4]
    |psi|^2 = 0.992
==== e(   2) =     4.70522 eV ==== 
     psi = 0.593*[#   1]+0.129*[#   2]+0.129*[#   3]+0.129*[#   4]
    |psi|^2 = 0.980
==== e(   3) =    19.98754 eV ==== 
     psi = 0.167*[#   2]+0.167*[#   3]+0.167*[#   4]
    |psi|^2 = 0.502
==== e(   4) =    19.98754 eV ==== 
     psi = 0.167*[#   2]+0.167*[#   3]+0.167*[#   4]
    |psi|^2 = 0.502
==== e(   5) =    20.48553 eV ==== 
     psi = 0.156*[#   2]+0.156*[#   3]+0.156*[#   4]
    |psi|^2 = 0.469
==== e(   6) =    20.48553 eV ==== 
     psi = 0.156*[#   2]+0.156*[#   3]+0.156*[#   4]
    |psi|^2 = 0.469
==== e(   7) =    23.84587 eV ==== 
     psi = 0.007*[#   1]
    |psi|^2 = 0.007
==== e(   8) =    24.53107 eV ==== 
     psi = 0.019*[#   1]
    |psi|^2 = 0.019
==== e(   9) =    34.52896 eV ==== 
     psi = 0.002*[#   2]+0.002*[#   3]+0.002*[#   4]
    |psi|^2 = 0.006
==== e(  10) =    34.52896 eV ==== 
     psi = 0.002*[#   2]+0.002*[#   3]+0.002*[#   4]
    |psi|^2 = 0.006

 k =   0.4687500000 -0.4687500000  1.4062500000
==== e(   1) =     3.61313 eV ==== 
     psi = 0.253*[#   1]+0.247*[#   2]+0.247*[#   3]+0.247*[#   4]
    |psi|^2 = 0.994
==== e(   2) =     4.23580 eV ==== 
     psi = 0.672*[#   1]+0.103*[#   2]+0.103*[#   3]+0.103*[#   4]
    |psi|^2 = 0.981
==== e(   3) =    18.16536 eV ==== 
     psi = 0.183*[#   2]+0.183*[#   3]+0.183*[#   4]+0.033*[#   1]
    |psi|^2 = 0.582
==== e(   4) =    19.05047 eV ==== 
     psi = 0.212*[#   2]+0.212*[#   3]+0.212*[#   4]
    |psi|^2 = 0.637
==== e(   5) =    20.61687 eV ==== 
     psi = 0.108*[#   2]+0.108*[#   3]+0.108*[#   4]+0.029*[#   1]
    |psi|^2 = 0.355
==== e(   6) =    21.56040 eV ==== 
     psi = 0.112*[#   2]+0.112*[#   3]+0.112*[#   4]
    |psi|^2 = 0.335
==== e(   7) =    24.83510 eV ==== 
     psi = 0.008*[#   1]+0.006*[#   2]+0.006*[#   3]+0.006*[#   4]
    |psi|^2 = 0.026
==== e(   8) =    25.43469 eV ==== 
     psi = 0.011*[#   2]+0.011*[#   3]+0.011*[#   4]+0.003*[#   1]
    |psi|^2 = 0.035
==== e(   9) =    34.16615 eV ==== 

    |psi|^2 = 0.002
==== e(  10) =    34.29377 eV ==== 
     psi = 0.003*[#   2]+0.003*[#   3]+0.003*[#   4]
    |psi|^2 = 0.009

Lowdin Charges: 

     Atom #   1: total charge =   2.9514, s =  0.8979, 
     Atom #   1: total charge =   2.9514, p =  2.0534, pz=  0.6845, px=  0.6845, py=  0.6845, 
     Spilling Parameter:   0.0162

     PROJWFC      :      0.75s CPU      0.81s WALL


   This run was terminated on:  22:59:45   6Jun2023            

=------------------------------------------------------------------------------=
   JOB DONE.
=------------------------------------------------------------------------------=
