
     Program PWSCF v.7.0 starts on  6Jun2023 at 22:16:25 

     This program is part of the open-source Quantum ESPRESSO suite
     for quantum simulation of materials; please cite
         "P. Giannozzi et al., J. Phys.:Condens. Matter 21 395502 (2009);
         "P. Giannozzi et al., J. Phys.:Condens. Matter 29 465901 (2017);
         "P. Giannozzi et al., J. Chem. Phys. 152 154105 (2020);
          URL http://www.quantum-espresso.org", 
     in publications or presentations arising from this work. More details at
     http://www.quantum-espresso.org/quote

     Parallel version (MPI), running on     1 processors

     MPI processes distributed on     1 nodes
     13408 MiB available memory on the printing compute node when the environment starts

     Reading input from relax.si.scf.in
     Message from routine read_cards :
     DEPRECATED: no units specified in ATOMIC_POSITIONS card
     Message from routine read_cards :
     ATOMIC_POSITIONS: units set to alat

     Current dimensions of program PWSCF are:
     Max number of different atomic species (ntypx) = 10
     Max number of k-points (npk) =  40000
     Max angular momentum in pseudopotentials (lmaxx) =  4

     Subspace diagonalization in iterative solution of the eigenvalue problem:
     a serial algorithm will be used


     G-vector sticks info
     --------------------
     sticks:   dense  smooth     PW     G-vecs:    dense   smooth      PW
     Sum         559     559    187                 8657     8657    1639

     Using Slab Decomposition



     bravais-lattice index     =            2
     lattice parameter (alat)  =      10.6000  a.u.
     unit-cell volume          =     297.7540 (a.u.)^3
     number of atoms/cell      =            2
     number of atomic types    =            1
     number of electrons       =         8.00
     number of Kohn-Sham states=           10
     kinetic-energy cutoff     =      36.0000  Ry
     charge density cutoff     =     144.0000  Ry
     scf convergence threshold =      1.0E-06
     mixing beta               =       0.7000
     number of iterations used =            8  plain     mixing
     energy convergence thresh.=      1.0E-04
     force convergence thresh. =      1.0E-03
     press convergence thresh. =      5.0E-01
     Exchange-correlation= SLA  PZ   NOGX NOGC
                           (   1   1   0   0   0   0   0)
     nstep                     =           50


     celldm(1)=  10.600000  celldm(2)=   0.000000  celldm(3)=   0.000000
     celldm(4)=   0.000000  celldm(5)=   0.000000  celldm(6)=   0.000000

     crystal axes: (cart. coord. in units of alat)
               a(1) = (  -0.500000   0.000000   0.500000 )  
               a(2) = (   0.000000   0.500000   0.500000 )  
               a(3) = (  -0.500000   0.500000   0.000000 )  

     reciprocal axes: (cart. coord. in units 2 pi/alat)
               b(1) = ( -1.000000 -1.000000  1.000000 )  
               b(2) = (  1.000000  1.000000  1.000000 )  
               b(3) = ( -1.000000  1.000000 -1.000000 )  


     PseudoPot. # 1 for Si read from file:
     ../../pseudo/Si.pz-vbc.UPF
     MD5 check sum: a974d1b8727157e37210f3f86afb6210
     Pseudo is Norm-conserving, Zval =  4.0
     Generated by new atomic code, or converted to UPF format
     Using radial grid of  431 points,  2 beta functions with: 
                l(1) =   0
                l(2) =   1

     atomic species   valence    mass     pseudopotential
        Si             4.00    28.08600     Si( 1.00)

     48 Sym. Ops., with inversion, found (24 have fractional translation)



   Cartesian axes

     site n.     atom                  positions (alat units)
         1           Si  tau(   1) = (   0.0000000   0.0000000   0.0000000  )
         2           Si  tau(   2) = (   0.2500000   0.2500000   0.2500000  )

     number of k points=    28
                       cart. coord. in units 2pi/alat
        k(    1) = (  -0.0833333   0.0833333   0.0833333), wk =   0.0185185
        k(    2) = (  -0.2500000   0.2500000  -0.0833333), wk =   0.0555556
        k(    3) = (  -0.4166667   0.4166667  -0.2500000), wk =   0.0555556
        k(    4) = (   0.4166667  -0.4166667   0.5833333), wk =   0.0555556
        k(    5) = (   0.2500000  -0.2500000   0.4166667), wk =   0.0555556
        k(    6) = (   0.0833333  -0.0833333   0.2500000), wk =   0.0555556
        k(    7) = (  -0.0833333   0.4166667   0.0833333), wk =   0.0555556
        k(    8) = (  -0.2500000   0.5833333  -0.0833333), wk =   0.1111111
        k(    9) = (   0.5833333  -0.2500000   0.7500000), wk =   0.1111111
        k(   10) = (   0.4166667  -0.0833333   0.5833333), wk =   0.1111111
        k(   11) = (   0.2500000   0.0833333   0.4166667), wk =   0.1111111
        k(   12) = (  -0.0833333   0.7500000   0.0833333), wk =   0.0555556
        k(   13) = (   0.7500000  -0.0833333   0.9166667), wk =   0.1111111
        k(   14) = (   0.5833333   0.0833333   0.7500000), wk =   0.1111111
        k(   15) = (   0.4166667   0.2500000   0.5833333), wk =   0.1111111
        k(   16) = (  -0.0833333  -0.9166667   0.0833333), wk =   0.0555556
        k(   17) = (  -0.2500000  -0.7500000  -0.0833333), wk =   0.1111111
        k(   18) = (  -0.0833333  -0.5833333   0.0833333), wk =   0.0555556
        k(   19) = (  -0.2500000   0.2500000   0.2500000), wk =   0.0185185
        k(   20) = (  -0.4166667   0.4166667   0.0833333), wk =   0.0555556
        k(   21) = (   0.4166667  -0.4166667   0.9166667), wk =   0.0555556
        k(   22) = (   0.2500000  -0.2500000   0.7500000), wk =   0.0555556
        k(   23) = (  -0.2500000   0.5833333   0.2500000), wk =   0.0555556
        k(   24) = (   0.5833333  -0.2500000   1.0833333), wk =   0.1111111
        k(   25) = (   0.4166667  -0.0833333   0.9166667), wk =   0.1111111
        k(   26) = (  -0.2500000  -1.0833333   0.2500000), wk =   0.0555556
        k(   27) = (  -0.4166667   0.4166667   0.4166667), wk =   0.0185185
        k(   28) = (   0.4166667  -0.4166667   1.2500000), wk =   0.0555556

     Dense  grid:     8657 G-vectors     FFT dimensions: (  32,  32,  32)

     Estimated max dynamical RAM per process >      11.64 MB

     Initial potential from superposition of free atoms

     starting charge       7.9990, renormalised to       8.0000
     Starting wfcs are    8 randomized atomic wfcs +    2 random wfcs

     total cpu time spent up to now is        0.5 secs

     per-process dynamical memory:    38.9 Mb

     Self-consistent Calculation

     iteration #  1     ecut=    36.00 Ry     beta= 0.70
     Davidson diagonalization with overlap
     ethr =  1.00E-02,  avg # of iterations =  6.4

     Threshold (ethr) on eigenvalues was too large:
     Diagonalizing with lowered threshold

     Davidson diagonalization with overlap
     ethr =  6.08E-04,  avg # of iterations =  1.6

     total cpu time spent up to now is        1.4 secs

     total energy              =     -15.84026973 Ry
     estimated scf accuracy    <       0.05095425 Ry

     iteration #  2     ecut=    36.00 Ry     beta= 0.70
     Davidson diagonalization with overlap
     ethr =  6.37E-04,  avg # of iterations =  1.0

     total cpu time spent up to now is        1.6 secs

     total energy              =     -15.84287169 Ry
     estimated scf accuracy    <       0.00178926 Ry

     iteration #  3     ecut=    36.00 Ry     beta= 0.70
     Davidson diagonalization with overlap
     ethr =  2.24E-05,  avg # of iterations =  4.9

     total cpu time spent up to now is        2.0 secs

     total energy              =     -15.84293020 Ry
     estimated scf accuracy    <       0.00004905 Ry

     iteration #  4     ecut=    36.00 Ry     beta= 0.70
     Davidson diagonalization with overlap
     ethr =  6.13E-07,  avg # of iterations =  3.2

     total cpu time spent up to now is        2.4 secs

     End of self-consistent calculation

          k =-0.0833 0.0833 0.0833 (  1085 PWs)   bands (ev):

    -6.1321   4.2016   4.9466   4.9466   7.3315   7.7714   7.7714   8.2592
    12.5050  12.5050

          k =-0.2500 0.2500-0.0833 (  1079 PWs)   bands (ev):

    -5.6927   2.2025   3.8088   4.7423   7.3977   8.1480   8.4231  10.1382
    11.5499  12.7298

          k =-0.4167 0.4167-0.2500 (  1085 PWs)   bands (ev):

    -4.6931  -0.3505   3.3507   4.1531   6.8996   8.5829   8.6112  12.0253
    12.5048  13.7237

          k = 0.4167-0.4167 0.5833 (  1088 PWs)   bands (ev):

    -4.0685  -1.3899   3.3968   3.8063   6.7621   8.3259   8.7422  12.5790
    13.7315  15.2464

          k = 0.2500-0.2500 0.4167 (  1084 PWs)   bands (ev):

    -5.0681   0.4292   3.8586   3.8723   7.0384   8.2589   9.0436  10.7894
    13.0548  13.4053

          k = 0.0833-0.0833 0.2500 (  1076 PWs)   bands (ev):

    -5.9101   3.1461   4.3622   4.4989   7.3074   7.9085   8.5903   9.2852
    11.5836  12.8253

          k =-0.0833 0.4167 0.0833 (  1079 PWs)   bands (ev):

    -5.4700   1.9663   3.6511   3.6908   6.7769   8.5883   9.5807   9.7184
    11.9016  13.4583

          k =-0.2500 0.5833-0.0833 (  1078 PWs)   bands (ev):

    -4.6334   0.2485   2.4485   3.3257   7.1479   8.6375   9.3779  10.7492
    13.4118  15.2944

          k = 0.5833-0.2500 0.7500 (  1090 PWs)   bands (ev):

    -3.6267  -1.3286   1.8666   3.1237   7.3623   8.8148  10.6177  11.0353
    12.8692  15.1579

          k = 0.4167-0.0833 0.5833 (  1087 PWs)   bands (ev):

    -4.2753  -0.3787   1.8558   3.5619   7.8528   8.5499  10.0477  10.5707
    12.7025  14.1171

          k = 0.2500 0.0833 0.4167 (  1087 PWs)   bands (ev):

    -5.2632   1.2195   3.0888   4.1619   7.5471   8.2326   9.4127   9.8198
    12.0387  13.8107

          k =-0.0833 0.7500 0.0833 (  1080 PWs)   bands (ev):

    -3.9759  -0.5571   2.4306   2.7355   6.0259   6.9730  12.0867  12.2447
    14.9551  15.5469

          k = 0.7500-0.0833 0.9167 (  1089 PWs)   bands (ev):

    -2.8837  -1.7975   1.6706   2.3707   6.6173   7.6630  11.7250  13.0108
    13.8657  15.3808

          k = 0.5833 0.0833 0.7500 (  1094 PWs)   bands (ev):

    -3.2395  -1.4570   1.2183   2.8702   7.1751   9.8977  10.7903  11.3362
    12.0569  13.9224

          k = 0.4167 0.2500 0.5833 (  1092 PWs)   bands (ev):

    -4.1796  -0.9551   2.6803   3.6483   7.3729   8.2509   9.4389  11.4936
    13.6995  14.2134

          k =-0.0833-0.9167 0.0833 (  1086 PWs)   bands (ev):

    -2.9603  -1.8015   2.1832   2.5347   5.9398   6.4703  13.5013  13.5145
    15.2012  15.5228

          k =-0.2500-0.7500-0.0833 (  1080 PWs)   bands (ev):

    -3.8253  -0.7563   1.9518   2.6860   6.8018   8.0151  10.4530  12.1551
    14.6615  14.9830

          k =-0.0833-0.5833 0.0833 (  1077 PWs)   bands (ev):

    -4.8204   0.7190   2.9252   3.1285   6.3113   7.8096  10.6839  10.9533
    13.3659  14.3798

          k =-0.2500 0.2500 0.2500 (  1083 PWs)   bands (ev):

    -5.4819   1.3105   4.3776   4.3776   6.7069   8.4783   8.4783  11.0939
    12.2167  12.2167

          k =-0.4167 0.4167 0.0833 (  1086 PWs)   bands (ev):

    -4.8582   0.3917   2.4117   4.2149   7.5785   8.9363   9.0256  10.6935
    11.4352  14.7005

          k = 0.4167-0.4167 0.9167 (  1093 PWs)   bands (ev):

    -3.7846  -0.9695   1.4037   3.4987   7.0428  10.1291  10.1703  11.6707
    12.2668  12.4630

          k = 0.2500-0.2500 0.7500 (  1088 PWs)   bands (ev):

    -3.7333  -1.0447   1.8315   3.0591   6.6126   9.3562  10.3084  10.7574
    14.5514  15.1971

          k =-0.2500 0.5833 0.2500 (  1085 PWs)   bands (ev):

    -4.4707  -0.3444   2.8004   3.4035   7.0128   8.9545   9.8068   9.9453
    14.4777  14.8667

          k = 0.5833-0.2500 1.0833 (  1086 PWs)   bands (ev):

    -3.5553  -1.1013   1.5012   2.6895   8.1901   8.6746   9.5632  12.0824
    12.7000  14.4533

          k = 0.4167-0.0833 0.9167 (  1090 PWs)   bands (ev):

    -2.7963  -1.8047   1.3717   2.0833   8.0134   9.2387   9.8280  11.1618
    13.7136  15.4914

          k =-0.2500-1.0833 0.2500 (  1090 PWs)   bands (ev):

    -2.9917  -1.6996   1.2546   2.8791   6.3651   9.0837  11.7665  11.7983
    13.2661  13.7540

          k =-0.4167 0.4167 0.4167 (  1095 PWs)   bands (ev):

    -4.3985  -1.0223   4.0100   4.0100   6.2759   8.4636   8.4636  12.5240
    14.0587  14.3853

          k = 0.4167-0.4167 1.2500 (  1088 PWs)   bands (ev):

    -3.8505  -1.3253   2.2920   3.6131   7.1201   8.8742   9.3748  12.5667
    13.0645  13.5912

     highest occupied, lowest unoccupied level (ev):     4.9466    5.9398

!    total energy              =     -15.84293638 Ry
     estimated scf accuracy    <       0.00000004 Ry

     The total energy is the sum of the following terms:
     one-electron contribution =       3.93790855 Ry
     hartree contribution      =       1.17610988 Ry
     xc contribution           =      -4.69492293 Ry
     ewald contribution        =     -16.26203187 Ry

     convergence has been achieved in   4 iterations

     Forces acting on atoms (cartesian axes, Ry/au):

     atom    1 type  1   force =    -0.00000000   -0.00000000    0.00000000
     atom    2 type  1   force =    -0.00000000   -0.00000000   -0.00000000

     Total force =     0.000000     Total SCF correction =     0.000000


     Computing stress (Cartesian axis) and pressure

          total   stress  (Ry/bohr**3)                   (kbar)     P=      -85.01
  -0.00057789   0.00000000   0.00000000          -85.01        0.00        0.00
   0.00000000  -0.00057789   0.00000000            0.00      -85.01        0.00
   0.00000000  -0.00000000  -0.00057789            0.00       -0.00      -85.01


     BFGS Geometry Optimization
     Energy error            =      0.0E+00 Ry
     Gradient error          =      1.0E-33 Ry/Bohr
     Cell gradient error     =      8.5E+01 kbar

     number of scf cycles    =   1
     number of bfgs steps    =   0

     enthalpy           new  =     -15.8429363820 Ry

     new trust radius        =       0.0498587932 bohr
     new conv_thr            =       0.0000010000 Ry

     new unit-cell volume =    285.03443 a.u.^3 (    42.23774 Ang^3 )
     density =      2.20835 g/cm^3

CELL_PARAMETERS (alat= 10.60000000)
  -0.492776412   0.000000000   0.492776412
   0.000000000   0.492776412   0.492776412
  -0.492776412   0.492776412  -0.000000000

ATOMIC_POSITIONS (alat)
Si           -0.0000000000       -0.0000000000        0.0000000000
Si            0.2463882060        0.2463882060        0.2463882060



     Writing config-only to output data dir ./tmp/silicon.save/
     NEW-OLD atomic charge density approx. for the potential
     extrapolated charge    7.64305, renormalised to    8.00000

     total cpu time spent up to now is        2.7 secs

     per-process dynamical memory:    39.9 Mb

     Self-consistent Calculation

     iteration #  1     ecut=    36.00 Ry     beta= 0.70
     Davidson diagonalization with overlap
     ethr =  1.00E-06,  avg # of iterations =  5.7

     total cpu time spent up to now is        3.3 secs

     total energy              =     -15.84762336 Ry
     estimated scf accuracy    <       0.00090318 Ry

     iteration #  2     ecut=    36.00 Ry     beta= 0.70
     Davidson diagonalization with overlap
     ethr =  1.13E-05,  avg # of iterations =  2.8

     total cpu time spent up to now is        3.7 secs

     total energy              =     -15.84919915 Ry
     estimated scf accuracy    <       0.00066302 Ry

     iteration #  3     ecut=    36.00 Ry     beta= 0.70
     Davidson diagonalization with overlap
     ethr =  8.29E-06,  avg # of iterations =  1.0

     total cpu time spent up to now is        4.0 secs

     total energy              =     -15.84912878 Ry
     estimated scf accuracy    <       0.00016224 Ry

     iteration #  4     ecut=    36.00 Ry     beta= 0.70
     Davidson diagonalization with overlap
     ethr =  2.03E-06,  avg # of iterations =  1.7

     total cpu time spent up to now is        4.3 secs

     total energy              =     -15.84915242 Ry
     estimated scf accuracy    <       0.00000662 Ry

     iteration #  5     ecut=    36.00 Ry     beta= 0.70
     Davidson diagonalization with overlap
     ethr =  8.28E-08,  avg # of iterations =  1.0

     total cpu time spent up to now is        4.5 secs

     End of self-consistent calculation

          k =-0.0846 0.0846 0.0846 (  1085 PWs)   bands (ev):

    -5.9866   4.6341   5.3603   5.3603   7.9330   8.2274   8.2274   8.9706
    12.9498  12.9498

          k =-0.2537 0.2537-0.0846 (  1079 PWs)   bands (ev):

    -5.5299   2.6011   4.1756   5.1535   7.9850   8.6124   8.9169  10.8156
    11.9633  13.2477

          k =-0.4228 0.4228-0.2537 (  1085 PWs)   bands (ev):

    -4.4860  -0.0510   3.7152   4.5422   7.4741   9.0256   9.0521  12.6434
    12.9855  14.2947

          k = 0.4228-0.4228 0.5919 (  1088 PWs)   bands (ev):

    -3.8242  -1.1422   3.7712   4.1795   7.3272   8.7484   9.1772  13.1329
    14.2855  15.8025

          k = 0.2537-0.2537 0.4228 (  1084 PWs)   bands (ev):

    -4.8788   0.7607   4.2426   4.2504   7.5935   8.7248   9.5177  11.3092
    13.7307  13.9071

          k = 0.0846-0.0846 0.2537 (  1076 PWs)   bands (ev):

    -5.7560   3.5761   4.7474   4.9068   7.7580   8.5064   9.0817   9.9634
    12.0365  13.2811

          k =-0.0846 0.4228 0.0846 (  1079 PWs)   bands (ev):

    -5.2987   2.3914   4.0191   4.0485   7.1960   9.1794  10.0641  10.2495
    12.5924  13.9369

          k =-0.2537 0.5919-0.0846 (  1078 PWs)   bands (ev):

    -4.4274   0.6194   2.7592   3.6723   7.5789   9.1427   9.8847  11.3096
    14.0463  15.9906

          k = 0.5919-0.2537 0.7610 (  1090 PWs)   bands (ev):

    -3.3666  -1.0423   2.1676   3.4579   7.8123   9.3079  11.1894  11.5644
    13.4714  15.7506

          k = 0.4228-0.0846 0.5919 (  1087 PWs)   bands (ev):

    -4.0515  -0.0393   2.1408   3.9195   8.3597   9.0134  10.5928  11.0943
    13.2661  14.7679

          k = 0.2537 0.0846 0.4228 (  1087 PWs)   bands (ev):

    -5.0831   1.6013   3.4277   4.5522   8.0268   8.8028   9.9242  10.2949
    12.6012  14.4346

          k =-0.0846 0.7610 0.0846 (  1080 PWs)   bands (ev):

    -3.7452  -0.1923   2.7341   3.0579   6.4037   7.3639  12.7341  12.8545
    15.8241  16.1050

          k = 0.7610-0.0846 0.9301 (  1089 PWs)   bands (ev):

    -2.6037  -1.4774   1.9314   2.6709   7.0107   8.0923  12.3322  13.6999
    14.4652  16.0510

          k = 0.5919 0.0846 0.7610 (  1094 PWs)   bands (ev):

    -2.9645  -1.1425   1.4625   3.1931   7.6003  10.4077  11.3415  11.9474
    12.6356  14.5347

          k = 0.4228 0.2537 0.5919 (  1092 PWs)   bands (ev):

    -3.9470  -0.6724   3.0248   4.0117   7.9196   8.6733   9.9309  12.0419
    14.2741  14.8196

          k =-0.0846-0.9301 0.0846 (  1086 PWs)   bands (ev):

    -2.6884  -1.4836   2.4757   2.8501   6.3035   6.8521  14.1936  14.2148
    15.8987  16.1130

          k =-0.2537-0.7610-0.0846 (  1080 PWs)   bands (ev):

    -3.5855  -0.4031   2.2329   2.9988   7.2088   8.4534  11.0254  12.7759
    15.3298  15.6632

          k =-0.0846-0.5919 0.0846 (  1077 PWs)   bands (ev):

    -4.6234   1.1228   3.2533   3.4651   6.7078   8.2413  11.2766  11.5222
    14.1683  14.8931

          k =-0.2537 0.2537 0.2537 (  1083 PWs)   bands (ev):

    -5.3102   1.6669   4.7708   4.7708   7.2883   8.9449   8.9449  11.8437
    12.6653  12.6653

          k =-0.4228 0.4228 0.0846 (  1086 PWs)   bands (ev):

    -4.6604   0.7461   2.7225   4.6051   8.1191   9.4194   9.5234  11.3027
    11.8549  15.3528

          k = 0.4228-0.4228 0.9301 (  1093 PWs)   bands (ev):

    -3.5360  -0.6494   1.6646   3.8558   7.4787  10.6896  10.6924  12.3075
    12.7282  13.0852

          k = 0.2537-0.2537 0.7610 (  1088 PWs)   bands (ev):

    -3.4848  -0.7263   2.1184   3.3959   7.0129   9.8386  10.9198  11.2793
    15.2407  15.7824

          k =-0.2537 0.5919 0.2537 (  1085 PWs)   bands (ev):

    -4.2554  -0.0246   3.1492   3.7541   7.4570   9.5297  10.2982  10.4205
    15.0667  15.6547

          k = 0.5919-0.2537 1.0992 (  1086 PWs)   bands (ev):

    -3.2988  -0.7696   1.7635   2.9985   8.6512   9.1558  10.0820  12.7040
    13.2890  15.1004

          k = 0.4228-0.0846 0.9301 (  1090 PWs)   bands (ev):

    -2.5061  -1.4848   1.6163   2.3611   8.4583   9.6968  10.3896  11.7425
    14.3593  16.1797

          k =-0.2537-1.0992 0.2537 (  1090 PWs)   bands (ev):

    -2.7082  -1.3869   1.4945   3.2089   6.7491   9.5570  12.3781  12.4232
    13.9566  14.2740

          k =-0.4228 0.4228 0.4228 (  1095 PWs)   bands (ev):

    -4.1738  -0.7588   4.3935   4.3935   6.8528   8.8900   8.8900  13.0415
    14.5976  14.5976

          k = 0.4228-0.4228 1.2683 (  1088 PWs)   bands (ev):

    -3.5983  -1.0583   2.6180   3.9761   7.5977   9.3884   9.8391  13.1722
    13.6837  14.1202

     highest occupied, lowest unoccupied level (ev):     5.3603    6.3035

!    total energy              =     -15.84915269 Ry
     estimated scf accuracy    <       0.00000056 Ry

     The total energy is the sum of the following terms:
     one-electron contribution =       4.25258372 Ry
     hartree contribution      =       1.13901798 Ry
     xc contribution           =      -4.74033811 Ry
     ewald contribution        =     -16.50041627 Ry

     convergence has been achieved in   5 iterations

     Forces acting on atoms (cartesian axes, Ry/au):

     atom    1 type  1   force =     0.00000000    0.00000000    0.00000000
     atom    2 type  1   force =     0.00000000    0.00000000    0.00000000

     Total force =     0.000000     Total SCF correction =     0.000000


     Computing stress (Cartesian axis) and pressure

          total   stress  (Ry/bohr**3)                   (kbar)     P=      -57.33
  -0.00038973   0.00000000  -0.00000000          -57.33        0.00       -0.00
   0.00000000  -0.00038973  -0.00000000            0.00      -57.33       -0.00
  -0.00000000  -0.00000000  -0.00038973           -0.00       -0.00      -57.33

     Energy error            =      6.2E-03 Ry
     Gradient error          =      1.0E-33 Ry/Bohr
     Cell gradient error     =      5.7E+01 kbar

     number of scf cycles    =   2
     number of bfgs steps    =   1

     enthalpy           old  =     -15.8429363820 Ry
     enthalpy           new  =     -15.8491526858 Ry

     CASE: enthalpy          _new < enthalpy          _old

     new trust radius        =       0.0742459852 bohr
     new conv_thr            =       0.0000000100 Ry

     new unit-cell volume =    266.64245 a.u.^3 (    39.51233 Ang^3 )
     density =      2.36068 g/cm^3

CELL_PARAMETERS (alat= 10.60000000)
  -0.481941030  -0.000000000   0.481941030
  -0.000000000   0.481941030   0.481941030
  -0.481941030   0.481941030   0.000000000

ATOMIC_POSITIONS (alat)
Si            0.0000000000        0.0000000000        0.0000000000
Si            0.2409705150        0.2409705150        0.2409705150



     Writing config-only to output data dir ./tmp/silicon.save/
     NEW-OLD atomic charge density approx. for the potential
     extrapolated charge    7.44826, renormalised to    8.00000

     total cpu time spent up to now is        4.8 secs

     per-process dynamical memory:    40.0 Mb

     Self-consistent Calculation

     iteration #  1     ecut=    36.00 Ry     beta= 0.70
     Davidson diagonalization with overlap
     ethr =  1.00E-06,  avg # of iterations =  6.4

     total cpu time spent up to now is        5.5 secs

     total energy              =     -15.84973659 Ry
     estimated scf accuracy    <       0.00207328 Ry

     iteration #  2     ecut=    36.00 Ry     beta= 0.70
     Davidson diagonalization with overlap
     ethr =  2.59E-05,  avg # of iterations =  2.6

     total cpu time spent up to now is        5.9 secs

     total energy              =     -15.85328447 Ry
     estimated scf accuracy    <       0.00149992 Ry

     iteration #  3     ecut=    36.00 Ry     beta= 0.70
     Davidson diagonalization with overlap
     ethr =  1.87E-05,  avg # of iterations =  1.0

     total cpu time spent up to now is        6.2 secs

     total energy              =     -15.85312812 Ry
     estimated scf accuracy    <       0.00036384 Ry

     iteration #  4     ecut=    36.00 Ry     beta= 0.70
     Davidson diagonalization with overlap
     ethr =  4.55E-06,  avg # of iterations =  2.0

     total cpu time spent up to now is        6.5 secs

     total energy              =     -15.85318129 Ry
     estimated scf accuracy    <       0.00001555 Ry

     iteration #  5     ecut=    36.00 Ry     beta= 0.70
     Davidson diagonalization with overlap
     ethr =  1.94E-07,  avg # of iterations =  1.4

     total cpu time spent up to now is        6.8 secs

     total energy              =     -15.85318203 Ry
     estimated scf accuracy    <       0.00000147 Ry

     iteration #  6     ecut=    36.00 Ry     beta= 0.70
     Davidson diagonalization with overlap
     ethr =  1.84E-08,  avg # of iterations =  1.0

     total cpu time spent up to now is        7.1 secs

     total energy              =     -15.85318201 Ry
     estimated scf accuracy    <       0.00000023 Ry

     iteration #  7     ecut=    36.00 Ry     beta= 0.70
     Davidson diagonalization with overlap
     ethr =  2.87E-09,  avg # of iterations =  1.0

     total cpu time spent up to now is        7.4 secs

     total energy              =     -15.85318201 Ry
     estimated scf accuracy    <       0.00000002 Ry

     iteration #  8     ecut=    36.00 Ry     beta= 0.70
     Davidson diagonalization with overlap
     ethr =  2.19E-10,  avg # of iterations =  1.4

     total cpu time spent up to now is        7.7 secs

     End of self-consistent calculation

          k =-0.0865 0.0865 0.0865 (  1085 PWs)   bands (ev):

    -5.7483   5.3185   6.0301   6.0301   8.7899   8.9568   8.9568  10.2337
    13.6597  13.6597

          k =-0.2594 0.2594-0.0865 (  1079 PWs)   bands (ev):

    -5.2642   3.2306   4.7706   5.8206   8.8996   9.3541   9.7064  11.9023
    12.6229  14.1128

          k =-0.4323 0.4323-0.2594 (  1085 PWs)   bands (ev):

    -4.1496   0.4247   4.3067   5.1743   8.3878   9.7265   9.7528  13.6061
    13.7560  15.1975

          k = 0.4323-0.4323 0.6052 (  1088 PWs)   bands (ev):

    -3.4265  -0.7501   4.3790   4.7859   8.2238   9.4243   9.8666  14.0012
    15.1676  16.6808

          k = 0.2594-0.2594 0.4323 (  1084 PWs)   bands (ev):

    -4.5712   1.2866   4.8434   4.8865   8.4625   9.4747  10.2709  12.1191
    14.7103  14.7837

          k = 0.0865-0.0865 0.2594 (  1076 PWs)   bands (ev):

    -5.5040   4.2528   5.3711   5.5695   8.4717   9.4182   9.8679  11.0798
    12.8009  14.0085

          k =-0.0865 0.4323 0.0865 (  1079 PWs)   bands (ev):

    -5.0196   3.0640   4.6191   4.6283   7.8661  10.0568  10.8554  11.0971
    13.7635  14.7012

          k =-0.2594 0.6052-0.0865 (  1078 PWs)   bands (ev):

    -4.0932   1.2098   3.2657   4.2346   8.2634   9.8864  10.7391  12.2039
    15.0416  17.0778

          k = 0.6052-0.2594 0.7781 (  1090 PWs)   bands (ev):

    -2.9442  -0.5894   2.6608   3.9995   8.5130  10.0932  12.0705  12.4411
    14.4333  16.6877

          k = 0.4323-0.0865 0.6052 (  1087 PWs)   bands (ev):

    -3.6887   0.5007   2.6065   4.4995   9.1409   9.7590  11.4525  11.9328
    14.1794  15.8108

          k = 0.2594 0.0865 0.4323 (  1087 PWs)   bands (ev):

    -4.7898   2.2055   3.9787   5.1862   8.7755   9.7075  10.7410  11.0378
    13.5016  15.4821

          k =-0.0865 0.7781 0.0865 (  1080 PWs)   bands (ev):

    -3.3719   0.3936   3.2266   3.5820   7.0057   7.9776  13.7621  13.8170
    16.9956  17.2400

          k = 0.7781-0.0865 0.9510 (  1089 PWs)   bands (ev):

    -2.1515  -0.9613   2.3537   3.1579   7.6346   8.7723  13.2921  14.7775
    15.4307  17.1234

          k = 0.6052 0.0865 0.7781 (  1094 PWs)   bands (ev):

    -2.5183  -0.6397   1.8602   3.7168   8.2699  11.2062  12.2107  12.9075
    13.5839  15.5300

          k = 0.4323 0.2594 0.6052 (  1092 PWs)   bands (ev):

    -3.5694  -0.2244   3.5861   4.6015   8.7738   9.3500  10.7176  12.9124
    15.1812  15.7816

          k =-0.0865-0.9510 0.0865 (  1086 PWs)   bands (ev):

    -2.2499  -0.9718   2.9505   3.3629   6.8808   7.4577  15.2545  15.3369
    17.0047  17.0687

          k =-0.2594-0.7781-0.0865 (  1080 PWs)   bands (ev):

    -3.1975   0.1639   2.6899   3.5057   7.8546   9.1403  11.9382  13.7603
    16.3842  16.7403

          k =-0.0865-0.6052 0.0865 (  1077 PWs)   bands (ev):

    -4.3037   1.7681   3.7865   4.0114   7.3413   8.9045  12.2274  12.4261
    15.4891  15.7136

          k =-0.2594 0.2594 0.2594 (  1083 PWs)   bands (ev):

    -5.0305   2.2317   5.4086   5.4086   8.2072   9.6879   9.6879  13.0547
    13.3830  13.3830

          k =-0.4323 0.4323 0.0865 (  1086 PWs)   bands (ev):

    -4.3391   1.3082   3.2291   5.2387   8.9590  10.1874  10.3235  12.2779
    12.5269  16.3835

          k = 0.4323-0.4323 0.9510 (  1093 PWs)   bands (ev):

    -3.1329  -0.1396   2.0909   4.4357   8.1613  11.5111  11.5792  13.3233
    13.4697  14.1008

          k = 0.2594-0.2594 0.7781 (  1088 PWs)   bands (ev):

    -3.0821  -0.2192   2.5873   3.9430   7.6435  10.5848  11.9201  12.1042
    16.3318  16.7123

          k =-0.2594 0.6052 0.2594 (  1085 PWs)   bands (ev):

    -3.9062   0.4828   3.7183   4.3232   8.1503  10.4324  11.0773  11.2000
    15.9885  16.3816

          k = 0.6052-0.2594 1.1239 (  1086 PWs)   bands (ev):

    -2.8835  -0.2388   2.1915   3.4984   9.3672   9.9164  10.9176  13.6654
    14.2617  16.1371

          k = 0.4323-0.0865 0.9510 (  1090 PWs)   bands (ev):

    -2.0359  -0.9691   2.0126   2.8105   9.1595  10.4172  11.2875  12.6631
    15.3940  17.2709

          k =-0.2594-1.1239 0.2594 (  1090 PWs)   bands (ev):

    -2.2486  -0.8847   1.8833   3.7448   7.3561  10.3027  13.2901  13.4717
    15.0693  15.1112

          k =-0.4323 0.4323 0.4323 (  1095 PWs)   bands (ev):

    -3.8089  -0.3400   5.0167   5.0167   7.7740   9.5654   9.5654  13.8501
    15.4567  15.4567

          k = 0.4323-0.4323 1.2968 (  1088 PWs)   bands (ev):

    -3.1882  -0.6365   3.1501   4.5657   8.3366  10.2238  10.5740  14.1257
    14.6745  14.9664

     highest occupied, lowest unoccupied level (ev):     6.0301    6.8808

!    total energy              =     -15.85318201 Ry
     estimated scf accuracy    <          2.6E-11 Ry

     The total energy is the sum of the following terms:
     one-electron contribution =       4.74695425 Ry
     hartree contribution      =       1.08269204 Ry
     xc contribution           =      -4.81143654 Ry
     ewald contribution        =     -16.87139176 Ry

     convergence has been achieved in   8 iterations

     Forces acting on atoms (cartesian axes, Ry/au):

     atom    1 type  1   force =     0.00000000    0.00000000    0.00000000
     atom    2 type  1   force =     0.00000000    0.00000000    0.00000000

     Total force =     0.000000     Total SCF correction =     0.000000


     Computing stress (Cartesian axis) and pressure

          total   stress  (Ry/bohr**3)                   (kbar)     P=       -3.56
  -0.00002417   0.00000000   0.00000000           -3.56        0.00        0.00
   0.00000000  -0.00002417   0.00000000            0.00       -3.56        0.00
  -0.00000000   0.00000000  -0.00002417           -0.00        0.00       -3.56

     Energy error            =      4.0E-03 Ry
     Gradient error          =      0.0E+00 Ry/Bohr
     Cell gradient error     =      3.6E+00 kbar

     number of scf cycles    =   3
     number of bfgs steps    =   2

     enthalpy           old  =     -15.8491526858 Ry
     enthalpy           new  =     -15.8531820144 Ry

     CASE: enthalpy          _new < enthalpy          _old

     new trust radius        =       0.0046298659 bohr
     new conv_thr            =       0.0000000100 Ry

     new unit-cell volume =    265.51003 a.u.^3 (    39.34453 Ang^3 )
     density =      2.37074 g/cm^3

CELL_PARAMETERS (alat= 10.60000000)
  -0.481257799  -0.000000000   0.481257799
  -0.000000000   0.481257799   0.481257799
  -0.481257799   0.481257799   0.000000000

ATOMIC_POSITIONS (alat)
Si            0.0000000000        0.0000000000        0.0000000000
Si            0.2406288994        0.2406288994        0.2406288994



     Writing config-only to output data dir ./tmp/silicon.save/
     NEW-OLD atomic charge density approx. for the potential
     extrapolated charge    7.96588, renormalised to    8.00000

     total cpu time spent up to now is        7.9 secs

     per-process dynamical memory:    39.9 Mb

     Self-consistent Calculation

     iteration #  1     ecut=    36.00 Ry     beta= 0.70
     Davidson diagonalization with overlap
     ethr =  1.00E-06,  avg # of iterations =  2.0

     Threshold (ethr) on eigenvalues was too large:
     Diagonalizing with lowered threshold

     Davidson diagonalization with overlap
     ethr =  8.23E-08,  avg # of iterations =  1.0

     total cpu time spent up to now is        8.6 secs

     total energy              =     -15.85318111 Ry
     estimated scf accuracy    <       0.00000658 Ry

     iteration #  2     ecut=    36.00 Ry     beta= 0.70
     Davidson diagonalization with overlap
     ethr =  8.22E-08,  avg # of iterations =  2.0

     total cpu time spent up to now is        8.9 secs

     total energy              =     -15.85319448 Ry
     estimated scf accuracy    <       0.00000597 Ry

     iteration #  3     ecut=    36.00 Ry     beta= 0.70
     Davidson diagonalization with overlap
     ethr =  7.46E-08,  avg # of iterations =  1.0

     total cpu time spent up to now is        9.2 secs

     total energy              =     -15.85319375 Ry
     estimated scf accuracy    <       0.00000161 Ry

     iteration #  4     ecut=    36.00 Ry     beta= 0.70
     Davidson diagonalization with overlap
     ethr =  2.01E-08,  avg # of iterations =  1.3

     total cpu time spent up to now is        9.5 secs

     total energy              =     -15.85319398 Ry
     estimated scf accuracy    <       0.00000005 Ry

     iteration #  5     ecut=    36.00 Ry     beta= 0.70
     Davidson diagonalization with overlap
     ethr =  6.40E-10,  avg # of iterations =  1.1

     total cpu time spent up to now is        9.8 secs

     End of self-consistent calculation

          k =-0.0866 0.0866 0.0866 (  1085 PWs)   bands (ev):

    -5.7328   5.3627   6.0739   6.0739   8.8431   9.0044   9.0044  10.3195
    13.7060  13.7060

          k =-0.2597 0.2597-0.0866 (  1079 PWs)   bands (ev):

    -5.2469   3.2712   4.8095   5.8642   8.9583   9.4025   9.7579  11.9727
    12.6659  14.1713

          k =-0.4329 0.4329-0.2597 (  1085 PWs)   bands (ev):

    -4.1278   0.4555   4.3454   5.2157   8.4472   9.7720   9.7984  13.6680
    13.8064  15.2563

          k = 0.4329-0.4329 0.6061 (  1088 PWs)   bands (ev):

    -3.4006  -0.7248   4.4188   4.8256   8.2819   9.4686   9.9114  14.0575
    15.2251  16.7378

          k = 0.2597-0.2597 0.4329 (  1084 PWs)   bands (ev):

    -4.5512   1.3206   4.8827   4.9281   8.5182   9.5240  10.3198  12.1713
    14.7627  14.8498

          k = 0.0866-0.0866 0.2597 (  1076 PWs)   bands (ev):

    -5.4877   4.2963   5.4118   5.6129   8.5182   9.4760   9.9192  11.1525
    12.8534  14.0559

          k =-0.0866 0.4329 0.0866 (  1079 PWs)   bands (ev):

    -5.0014   3.1073   4.6585   4.6662   7.9099  10.1109  10.9082  11.1522
    13.8425  14.7511

          k =-0.2597 0.6061-0.0866 (  1078 PWs)   bands (ev):

    -4.0715   1.2480   3.2990   4.2714   8.3079   9.9328  10.7961  12.2622
    15.1057  17.1471

          k = 0.6061-0.2597 0.7792 (  1090 PWs)   bands (ev):

    -2.9166  -0.5603   2.6933   4.0349   8.5581  10.1443  12.1262  12.5001
    14.4961  16.7485

          k = 0.4329-0.0866 0.6061 (  1087 PWs)   bands (ev):

    -3.6652   0.5356   2.6371   4.5375   9.1907   9.8078  11.5079  11.9877
    14.2396  15.8790

          k = 0.2597 0.0866 0.4329 (  1087 PWs)   bands (ev):

    -4.7708   2.2445   4.0148   5.2277   8.8239   9.7659  10.7943  11.0858
    13.5601  15.5526

          k =-0.0866 0.7792 0.0866 (  1080 PWs)   bands (ev):

    -3.3477   0.4317   3.2589   3.6163   7.0450   8.0173  13.8288  13.8793
    17.0536  17.3335

          k = 0.7792-0.0866 0.9524 (  1089 PWs)   bands (ev):

    -2.1221  -0.9278   2.3813   3.1898   7.6752   8.8165  13.3543  14.8466
    15.4943  17.1933

          k = 0.6061 0.0866 0.7792 (  1094 PWs)   bands (ev):

    -2.4893  -0.6072   1.8863   3.7511   8.3133  11.2577  12.2669  12.9694
    13.6467  15.5956

          k = 0.4329 0.2597 0.6061 (  1092 PWs)   bands (ev):

    -3.5449  -0.1956   3.6229   4.6401   8.8285   9.3944  10.7690  12.9690
    15.2401  15.8441

          k =-0.0866-0.9524 0.0866 (  1086 PWs)   bands (ev):

    -2.2214  -0.9386   2.9816   3.3965   6.9184   7.4971  15.3226  15.4092
    17.0767  17.1316

          k =-0.2597-0.7792-0.0866 (  1080 PWs)   bands (ev):

    -3.1723   0.2007   2.7199   3.5388   7.8966   9.1847  11.9976  13.8242
    16.4526  16.8101

          k =-0.0866-0.6061 0.0866 (  1077 PWs)   bands (ev):

    -4.2829   1.8099   3.8215   4.0472   7.3827   8.9469  12.2894  12.4848
    15.5767  15.7672

          k =-0.2597 0.2597 0.2597 (  1083 PWs)   bands (ev):

    -5.0124   2.2682   5.4503   5.4503   8.2667   9.7363   9.7363  13.1340
    13.4299  13.4299

          k =-0.4329 0.4329 0.0866 (  1086 PWs)   bands (ev):

    -4.3182   1.3445   3.2623   5.2802   9.0128  10.2374  10.3759  12.3416
    12.5708  16.4504

          k = 0.4329-0.4329 0.9524 (  1093 PWs)   bands (ev):

    -3.1067  -0.1067   2.1190   4.4737   8.2054  11.5643  11.6365  13.3896
    13.5183  14.1678

          k = 0.2597-0.2597 0.7792 (  1088 PWs)   bands (ev):

    -3.0560  -0.1865   2.6181   3.9788   7.6844  10.6328  11.9859  12.1577
    16.4026  16.7728

          k =-0.2597 0.6061 0.2597 (  1085 PWs)   bands (ev):

    -3.8835   0.5155   3.7557   4.3604   8.1950  10.4901  11.1279  11.2520
    16.0483  16.4394

          k = 0.6061-0.2597 1.1255 (  1086 PWs)   bands (ev):

    -2.8565  -0.2044   2.2196   3.5311   9.4133   9.9658  10.9723  13.7268
    14.3265  16.2048

          k = 0.4329-0.0866 0.9524 (  1090 PWs)   bands (ev):

    -2.0053  -0.9355   2.0386   2.8399   9.2049  10.4639  11.3459  12.7229
    15.4616  17.3417

          k =-0.2597-1.1255 0.2597 (  1090 PWs)   bands (ev):

    -2.2187  -0.8521   1.9087   3.7799   7.3955  10.3510  13.3490  13.5399
    15.1422  15.1661

          k =-0.4329 0.4329 0.4329 (  1095 PWs)   bands (ev):

    -3.7852  -0.3129   5.0575   5.0575   7.8340   9.6092   9.6092  13.9026
    15.5127  15.5127

          k = 0.4329-0.4329 1.2987 (  1088 PWs)   bands (ev):

    -3.1615  -0.6094   3.1851   4.6043   8.3839  10.2788  10.6217  14.1876
    14.7391  15.0216

     highest occupied, lowest unoccupied level (ev):     6.0739    6.9184

!    total energy              =     -15.85319399 Ry
     estimated scf accuracy    <          4.3E-09 Ry

     The total energy is the sum of the following terms:
     one-electron contribution =       4.77901611 Ry
     hartree contribution      =       1.07921812 Ry
     xc contribution           =      -4.81608452 Ry
     ewald contribution        =     -16.89534370 Ry

     convergence has been achieved in   5 iterations

     Forces acting on atoms (cartesian axes, Ry/au):

     atom    1 type  1   force =    -0.00000000   -0.00000000   -0.00000000
     atom    2 type  1   force =     0.00000000    0.00000000    0.00000000

     Total force =     0.000000     Total SCF correction =     0.000000


     Computing stress (Cartesian axis) and pressure

          total   stress  (Ry/bohr**3)                   (kbar)     P=        0.49
   0.00000330  -0.00000000  -0.00000000            0.49       -0.00       -0.00
  -0.00000000   0.00000330   0.00000000           -0.00        0.49        0.00
   0.00000000   0.00000000   0.00000330            0.00        0.00        0.49

     Energy error            =      1.2E-05 Ry
     Gradient error          =      5.1E-32 Ry/Bohr
     Cell gradient error     =      4.9E-01 kbar

     bfgs converged in   4 scf cycles and   3 bfgs steps
     (criteria: energy <  1.0E-04 Ry, force <  1.0E-03Ry/Bohr, cell <  5.0E-01kbar)

     End of BFGS Geometry Optimization

     Final enthalpy           =     -15.8531939857 Ry

     File ./tmp/silicon.bfgs deleted, as requested
Begin final coordinates
     new unit-cell volume =    265.51003 a.u.^3 (    39.34453 Ang^3 )
     density =      2.37074 g/cm^3

CELL_PARAMETERS (alat= 10.60000000)
  -0.481257799  -0.000000000   0.481257799
  -0.000000000   0.481257799   0.481257799
  -0.481257799   0.481257799   0.000000000

ATOMIC_POSITIONS (alat)
Si            0.0000000000        0.0000000000        0.0000000000
Si            0.2406288994        0.2406288994        0.2406288994
End final coordinates



     Writing config-only to output data dir ./tmp/silicon.save/

     Final scf calculation at the relaxed structure.
     The G-vectors are recalculated for the final unit cell
     Results may differ from those at the preceding step.

     G-vector sticks info
     --------------------
     sticks:   dense  smooth     PW     G-vecs:    dense   smooth      PW
     Sum         511     511    163                 7799     7799    1459

     Using Slab Decomposition



     bravais-lattice index     =            2
     lattice parameter (alat)  =      10.6000  a.u.
     unit-cell volume          =     265.5100 (a.u.)^3
     number of atoms/cell      =            2
     number of atomic types    =            1
     number of electrons       =         8.00
     number of Kohn-Sham states=           10
     kinetic-energy cutoff     =      36.0000  Ry
     charge density cutoff     =     144.0000  Ry
     scf convergence threshold =      1.0E-08
     mixing beta               =       0.7000
     number of iterations used =            8  plain     mixing
     press convergence thresh. =      5.0E-01
     Exchange-correlation= SLA  PZ   NOGX NOGC
                           (   1   1   0   0   0   0   0)

     celldm(1)=  10.600000  celldm(2)=   0.000000  celldm(3)=   0.000000
     celldm(4)=   0.000000  celldm(5)=   0.000000  celldm(6)=   0.000000

     crystal axes: (cart. coord. in units of alat)
               a(1) = (  -0.481258  -0.000000   0.481258 )  
               a(2) = (  -0.000000   0.481258   0.481258 )  
               a(3) = (  -0.481258   0.481258   0.000000 )  

     reciprocal axes: (cart. coord. in units 2 pi/alat)
               b(1) = ( -1.038944 -1.038944  1.038944 )  
               b(2) = (  1.038944  1.038944  1.038944 )  
               b(3) = ( -1.038944  1.038944 -1.038944 )  


     PseudoPot. # 1 for Si read from file:
     ../../pseudo/Si.pz-vbc.UPF
     MD5 check sum: a974d1b8727157e37210f3f86afb6210
     Pseudo is Norm-conserving, Zval =  4.0
     Generated by new atomic code, or converted to UPF format
     Using radial grid of  431 points,  2 beta functions with: 
                l(1) =   0
                l(2) =   1

     atomic species   valence    mass     pseudopotential
        Si             4.00    28.08600     Si( 1.00)

     48 Sym. Ops., with inversion, found (24 have fractional translation)



   Cartesian axes

     site n.     atom                  positions (alat units)
         1           Si  tau(   1) = (   0.0000000   0.0000000   0.0000000  )
         2           Si  tau(   2) = (   0.2406289   0.2406289   0.2406289  )

     number of k points=    28
                       cart. coord. in units 2pi/alat
        k(    1) = (  -0.0865787   0.0865787   0.0865787), wk =   0.0185185
        k(    2) = (  -0.2597361   0.2597361  -0.0865787), wk =   0.0555556
        k(    3) = (  -0.4328934   0.4328934  -0.2597361), wk =   0.0555556
        k(    4) = (   0.4328934  -0.4328934   0.6060508), wk =   0.0555556
        k(    5) = (   0.2597361  -0.2597361   0.4328934), wk =   0.0555556
        k(    6) = (   0.0865787  -0.0865787   0.2597361), wk =   0.0555556
        k(    7) = (  -0.0865787   0.4328934   0.0865787), wk =   0.0555556
        k(    8) = (  -0.2597361   0.6060508  -0.0865787), wk =   0.1111111
        k(    9) = (   0.6060508  -0.2597361   0.7792082), wk =   0.1111111
        k(   10) = (   0.4328934  -0.0865787   0.6060508), wk =   0.1111111
        k(   11) = (   0.2597361   0.0865787   0.4328934), wk =   0.1111111
        k(   12) = (  -0.0865787   0.7792082   0.0865787), wk =   0.0555556
        k(   13) = (   0.7792082  -0.0865787   0.9523655), wk =   0.1111111
        k(   14) = (   0.6060508   0.0865787   0.7792082), wk =   0.1111111
        k(   15) = (   0.4328934   0.2597361   0.6060508), wk =   0.1111111
        k(   16) = (  -0.0865787  -0.9523655   0.0865787), wk =   0.0555556
        k(   17) = (  -0.2597361  -0.7792082  -0.0865787), wk =   0.1111111
        k(   18) = (  -0.0865787  -0.6060508   0.0865787), wk =   0.0555556
        k(   19) = (  -0.2597361   0.2597361   0.2597361), wk =   0.0185185
        k(   20) = (  -0.4328934   0.4328934   0.0865787), wk =   0.0555556
        k(   21) = (   0.4328934  -0.4328934   0.9523655), wk =   0.0555556
        k(   22) = (   0.2597361  -0.2597361   0.7792082), wk =   0.0555556
        k(   23) = (  -0.2597361   0.6060508   0.2597361), wk =   0.0555556
        k(   24) = (   0.6060508  -0.2597361   1.1255229), wk =   0.1111111
        k(   25) = (   0.4328934  -0.0865787   0.9523655), wk =   0.1111111
        k(   26) = (  -0.2597361  -1.1255229   0.2597361), wk =   0.0555556
        k(   27) = (  -0.4328934   0.4328934   0.4328934), wk =   0.0185185
        k(   28) = (   0.4328934  -0.4328934   1.2986803), wk =   0.0555556

     Dense  grid:     7799 G-vectors     FFT dimensions: (  32,  32,  32)

     Estimated max dynamical RAM per process >      10.74 MB

     Initial potential from superposition of free atoms

     starting charge       7.9990, renormalised to       8.0000
     Starting wfcs are    8 randomized atomic wfcs +    2 random wfcs

     total cpu time spent up to now is       10.1 secs

     per-process dynamical memory:    38.3 Mb

     Self-consistent Calculation

     iteration #  1     ecut=    36.00 Ry     beta= 0.70
     Davidson diagonalization with overlap
     c_bands:  1 eigenvalues not converged
     c_bands:  1 eigenvalues not converged
     c_bands:  1 eigenvalues not converged
     c_bands:  1 eigenvalues not converged
     c_bands:  1 eigenvalues not converged
     c_bands:  2 eigenvalues not converged
     ethr =  1.00E-06,  avg # of iterations = 17.9

     total cpu time spent up to now is       11.4 secs

     total energy              =     -15.84912910 Ry
     estimated scf accuracy    <       0.06300235 Ry

     iteration #  2     ecut=    36.00 Ry     beta= 0.70
     Davidson diagonalization with overlap
     ethr =  7.88E-04,  avg # of iterations =  1.0

     total cpu time spent up to now is       11.7 secs

     total energy              =     -15.85294513 Ry
     estimated scf accuracy    <       0.00175631 Ry

     iteration #  3     ecut=    36.00 Ry     beta= 0.70
     Davidson diagonalization with overlap
     ethr =  2.20E-05,  avg # of iterations =  1.8

     total cpu time spent up to now is       12.0 secs

     total energy              =     -15.85300175 Ry
     estimated scf accuracy    <       0.00005748 Ry

     iteration #  4     ecut=    36.00 Ry     beta= 0.70
     Davidson diagonalization with overlap
     ethr =  7.19E-07,  avg # of iterations =  2.9

     total cpu time spent up to now is       12.3 secs

     total energy              =     -15.85300583 Ry
     estimated scf accuracy    <       0.00000014 Ry

     iteration #  5     ecut=    36.00 Ry     beta= 0.70
     Davidson diagonalization with overlap
     ethr =  1.81E-09,  avg # of iterations =  4.0

     total cpu time spent up to now is       12.6 secs

     End of self-consistent calculation

          k =-0.0866 0.0866 0.0866 (   950 PWs)   bands (ev):

    -5.7323   5.3632   6.0743   6.0743   8.8440   9.0048   9.0048  10.3230
    13.7073  13.7073

          k =-0.2597 0.2597-0.0866 (   959 PWs)   bands (ev):

    -5.2464   3.2717   4.8098   5.8646   8.9597   9.4029   9.7585  11.9743
    12.6671  14.1730

          k =-0.4329 0.4329-0.2597 (   965 PWs)   bands (ev):

    -4.1272   0.4559   4.3457   5.2160   8.4488   9.7725   9.7991  13.6688
    13.8076  15.2579

          k = 0.4329-0.4329 0.6061 (   972 PWs)   bands (ev):

    -3.4001  -0.7244   4.4192   4.8258   8.2836   9.4693   9.9120  14.0578
    15.2265  16.7390

          k = 0.2597-0.2597 0.4329 (   962 PWs)   bands (ev):

    -4.5506   1.3210   4.8829   4.9285   8.5197   9.5248  10.3203  12.1722
    14.7639  14.8508

          k = 0.0866-0.0866 0.2597 (   955 PWs)   bands (ev):

    -5.4871   4.2969   5.4121   5.6133   8.5188   9.4771   9.9197  11.1545
    12.8550  14.0571

          k =-0.0866 0.4329 0.0866 (   969 PWs)   bands (ev):

    -5.0009   3.1079   4.6588   4.6664   7.9104  10.1120  10.9089  11.1527
    13.8449  14.7522

          k =-0.2597 0.6061-0.0866 (   969 PWs)   bands (ev):

    -4.0709   1.2485   3.2992   4.2716   8.3086   9.9338  10.7970  12.2628
    15.1073  17.1479

          k = 0.6061-0.2597 0.7792 (   966 PWs)   bands (ev):

    -2.9160  -0.5598   2.6936   4.0351   8.5591  10.1451  12.1272  12.5012
    14.4971  16.7498

          k = 0.4329-0.0866 0.6061 (   970 PWs)   bands (ev):

    -3.6646   0.5361   2.6373   4.5377   9.1918   9.8086  11.5088  11.9886
    14.2410  15.8797

          k = 0.2597 0.0866 0.4329 (   961 PWs)   bands (ev):

    -4.7702   2.2451   4.0151   5.2281   8.8247   9.7672  10.7949  11.0868
    13.5617  15.5551

          k =-0.0866 0.7792 0.0866 (   979 PWs)   bands (ev):

    -3.3472   0.4324   3.2590   3.6164   7.0457   8.0181  13.8298  13.8799
    17.0550  17.3369

          k = 0.7792-0.0866 0.9524 (   975 PWs)   bands (ev):

    -2.1216  -0.9271   2.3815   3.1900   7.6759   8.8173  13.3553  14.8476
    15.4959  17.1951

          k = 0.6061 0.0866 0.7792 (   971 PWs)   bands (ev):

    -2.4887  -0.6066   1.8865   3.7513   8.3142  11.2586  12.2680  12.9703
    13.6479  15.5972

          k = 0.4329 0.2597 0.6061 (   971 PWs)   bands (ev):

    -3.5443  -0.1951   3.6233   4.6404   8.8298   9.3952  10.7697  12.9701
    15.2407  15.8456

          k =-0.0866-0.9524 0.0866 (   973 PWs)   bands (ev):

    -2.2209  -0.9379   2.9818   3.3967   6.9192   7.4978  15.3235  15.4105
    17.0786  17.1335

          k =-0.2597-0.7792-0.0866 (   969 PWs)   bands (ev):

    -3.1717   0.2014   2.7201   3.5390   7.8974   9.1856  11.9986  13.8251
    16.4537  16.8121

          k =-0.0866-0.6061 0.0866 (   977 PWs)   bands (ev):

    -4.2824   1.8105   3.8216   4.0474   7.3833   8.9476  12.2902  12.4852
    15.5794  15.7683

          k =-0.2597 0.2597 0.2597 (   959 PWs)   bands (ev):

    -5.0118   2.2686   5.4506   5.4506   8.2682   9.7368   9.7368  13.1357
    13.4311  13.4311

          k =-0.4329 0.4329 0.0866 (   966 PWs)   bands (ev):

    -4.3176   1.3450   3.2626   5.2805   9.0141  10.2378  10.3768  12.3426
    12.5720  16.4513

          k = 0.4329-0.4329 0.9524 (   970 PWs)   bands (ev):

    -3.1062  -0.1061   2.1192   4.4739   8.2063  11.5648  11.6378  13.3910
    13.5197  14.1685

          k = 0.2597-0.2597 0.7792 (   971 PWs)   bands (ev):

    -3.0554  -0.1859   2.6184   3.9790   7.6852  10.6338  11.9872  12.1584
    16.4035  16.7745

          k =-0.2597 0.6061 0.2597 (   974 PWs)   bands (ev):

    -3.8830   0.5159   3.7560   4.3606   8.1959  10.4912  11.1284  11.2530
    16.0491  16.4408

          k = 0.6061-0.2597 1.1255 (   970 PWs)   bands (ev):

    -2.8559  -0.2038   2.2198   3.5313   9.4140   9.9665  10.9733  13.7279
    14.3274  16.2067

          k = 0.4329-0.0866 0.9524 (   969 PWs)   bands (ev):

    -2.0047  -0.9349   2.0387   2.8400   9.2057  10.4648  11.3469  12.7240
    15.4628  17.3437

          k =-0.2597-1.1255 0.2597 (   970 PWs)   bands (ev):

    -2.2181  -0.8515   1.9089   3.7801   7.3964  10.3518  13.3496  13.5412
    15.1438  15.1676

          k =-0.4329 0.4329 0.4329 (   963 PWs)   bands (ev):

    -3.7846  -0.3125   5.0577   5.0577   7.8359   9.6098   9.6098  13.9030
    15.5140  15.5140

          k = 0.4329-0.4329 1.2987 (   973 PWs)   bands (ev):

    -3.1610  -0.6090   3.1854   4.6045   8.3848  10.2799  10.6222  14.1884
    14.7401  15.0226

     highest occupied, lowest unoccupied level (ev):     6.0743    6.9192

!    total energy              =     -15.85300631 Ry
     estimated scf accuracy    <          7.4E-09 Ry

     The total energy is the sum of the following terms:
     one-electron contribution =       4.77932431 Ry
     hartree contribution      =       1.07909122 Ry
     xc contribution           =      -4.81607811 Ry
     ewald contribution        =     -16.89534372 Ry

     convergence has been achieved in   5 iterations

     Forces acting on atoms (cartesian axes, Ry/au):

     atom    1 type  1   force =    -0.00000000   -0.00000000    0.00000000
     atom    2 type  1   force =    -0.00000000   -0.00000000   -0.00000000

     Total force =     0.000000     Total SCF correction =     0.000000


     Computing stress (Cartesian axis) and pressure

          total   stress  (Ry/bohr**3)                   (kbar)     P=        0.29
   0.00000194   0.00000000  -0.00000000            0.29        0.00       -0.00
   0.00000000   0.00000194   0.00000000            0.00        0.29        0.00
   0.00000000   0.00000000   0.00000194            0.00        0.00        0.29


     Writing all to output data dir ./tmp/silicon.save/

     init_run     :      0.67s CPU      0.67s WALL (       2 calls)
     electrons    :     10.74s CPU     10.91s WALL (       5 calls)
     update_pot   :      0.28s CPU      0.28s WALL (       3 calls)
     forces       :      0.23s CPU      0.23s WALL (       5 calls)
     stress       :      0.65s CPU      0.65s WALL (       5 calls)

     Called by init_run:
     wfcinit      :      0.36s CPU      0.36s WALL (       2 calls)
     potinit      :      0.07s CPU      0.07s WALL (       2 calls)
     hinit0       :      0.22s CPU      0.23s WALL (       2 calls)

     Called by electrons:
     c_bands      :      9.05s CPU      9.19s WALL (      29 calls)
     sum_band     :      1.62s CPU      1.64s WALL (      29 calls)
     v_of_rho     :      0.04s CPU      0.04s WALL (      32 calls)
     mix_rho      :      0.02s CPU      0.02s WALL (      29 calls)

     Called by c_bands:
     init_us_2    :      0.21s CPU      0.22s WALL (    1960 calls)
     init_us_2:cp :      0.21s CPU      0.21s WALL (    1960 calls)
     cegterg      :      8.90s CPU      9.03s WALL (     812 calls)

     Called by *egterg:
     cdiaghg      :      0.23s CPU      0.25s WALL (    2968 calls)
     h_psi        :      8.44s CPU      8.55s WALL (    3164 calls)
     g_psi        :      0.05s CPU      0.05s WALL (    2296 calls)

     Called by h_psi:
     h_psi:calbec :      0.07s CPU      0.07s WALL (    3164 calls)
     vloc_psi     :      8.25s CPU      8.37s WALL (    3164 calls)
     add_vuspsi   :      0.07s CPU      0.07s WALL (    3164 calls)

     General routines
     calbec       :      0.09s CPU      0.09s WALL (    3864 calls)
     fft          :      0.16s CPU      0.16s WALL (     121 calls)
     ffts         :      0.01s CPU      0.01s WALL (      29 calls)
     fftw         :      8.27s CPU      8.38s WALL (   54780 calls)

     Parallel routines

     PWSCF        :     12.64s CPU     12.83s WALL


   This run was terminated on:  22:16:38   6Jun2023            

=------------------------------------------------------------------------------=
   JOB DONE.
=------------------------------------------------------------------------------=
