
     Program BANDS v.7.0 starts on  6Jun2023 at 23:13: 2 

     This program is part of the open-source Quantum ESPRESSO suite
     for quantum simulation of materials; please cite
         "P. Giannozzi et al., J. Phys.:Condens. Matter 21 395502 (2009);
         "P. Giannozzi et al., J. Phys.:Condens. Matter 29 465901 (2017);
         "P. Giannozzi et al., J. Chem. Phys. 152 154105 (2020);
          URL http://www.quantum-espresso.org", 
     in publications or presentations arising from this work. More details at
     http://www.quantum-espresso.org/quote

     Parallel version (MPI), running on     1 processors

     MPI processes distributed on     1 nodes
     10206 MiB available memory on the printing compute node when the environment starts


     Reading xml data from directory:

     ./tmp/al.save/

     IMPORTANT: XC functional enforced from input :
     Exchange-correlation= PZ
                           (   1   1   0   0   0   0   0)
     Any further DFT definition will be discarded
     Please, verify this is what you really want


     G-vector sticks info
     --------------------
     sticks:   dense  smooth     PW     G-vecs:    dense   smooth      PW
     Sum         121     121     43                  893      893     181

     Using Slab Decomposition

     Reading collected, re-writing distributed wavefunctions
     high-symmetry point:  0.5000 0.5000 0.5000   x coordinate   0.0000
     high-symmetry point:  0.0000 0.0000 0.0000   x coordinate   0.8660
     high-symmetry point:  1.0000 0.0000 0.0000   x coordinate   1.8660
     high-symmetry point:  1.0000 0.2500 0.2500   x coordinate   2.2196
     high-symmetry point:  0.0000 0.0000 0.0000   x coordinate   3.2802

     Plottable bands (eV) written to file bands.dat.gnu
     Bands written to file bands.dat

 **************************************************************************

                    xk=(   0.50000,   0.50000,   0.50000  )

     point group D_3d (-3m) 
     there are  6 classes
     the character table:

       E     2C3   3C2'  i     2S6   3s_d 
A_1g   1.00  1.00  1.00  1.00  1.00  1.00
A_2g   1.00  1.00 -1.00  1.00  1.00 -1.00
E_g    2.00 -1.00  0.00  2.00 -1.00  0.00
A_1u   1.00  1.00  1.00 -1.00 -1.00 -1.00
A_2u   1.00  1.00 -1.00 -1.00 -1.00  1.00
E_u    2.00 -1.00  0.00 -2.00  1.00  0.00

     the symmetry operations in each class and the name of the first element:

     E        1
                                                                 
     2C3      5    6
                                                                 
     3C2'     2    4    3
                                                                 
     i        7
                                                                 
     2S6     11   12
                                                                 
     3s_d     8   10    9
                                                                 

     Band symmetry, D_3d (-3m)  point group:

     e(  1 -  1) =      3.69860  eV     1   --> A_2u L_2'      
     e(  2 -  2) =      3.96056  eV     1   --> A_1g L_1       
     e(  3 -  4) =     20.20759  eV     2   --> E_g  L_3       
     e(  5 -  6) =     20.22510  eV     2   --> E_u  L_3'      
     e(  7 -  7) =     23.98110  eV     1   --> A_2u L_2'      
     e(  8 -  8) =     24.35209  eV     1   --> A_1g L_1       
     e(  9 - 10) =     34.85465  eV     2   --> E_g  L_3       

 **************************************************************************

 **************************************************************************

                    xk=(   0.47500,   0.47500,   0.47500  )

     point group C_3v (3m)  
     there are  3 classes
     the character table:

       E     2C3   3s_v 
A_1    1.00  1.00  1.00
A_2    1.00  1.00 -1.00
E      2.00 -1.00  0.00

     the symmetry operations in each class and the name of the first element:

     E        1
                                                                 
     2C3      2    3
                                                                 
     3s_v     4    5    6
                                                                 

     Band symmetry, C_3v (3m)   point group:

     e(  1 -  1) =      3.15800  eV     1   --> A_1  L_1       
     e(  2 -  2) =      4.53097  eV     1   --> A_1  L_1       
     e(  3 -  4) =     20.03027  eV     2   --> E    L_3       
     e(  5 -  6) =     20.43207  eV     2   --> E    L_3       
     e(  7 -  7) =     23.88480  eV     1   --> A_1  L_1       
     e(  8 -  8) =     24.47688  eV     1   --> A_1  L_1       
     e(  9 - 10) =     34.64281  eV     2   --> E    L_3       

 **************************************************************************

 **************************************************************************

                    xk=(   0.45000,   0.45000,   0.45000  )

     Band symmetry, C_3v (3m)   point group:

     e(  1 -  1) =      2.53330  eV     1   --> A_1  L_1       
     e(  2 -  2) =      5.24279  eV     1   --> A_1  L_1       
     e(  3 -  4) =     19.87309  eV     2   --> E    L_3       
     e(  5 -  6) =     20.67192  eV     2   --> E    L_3       
     e(  7 -  7) =     23.72660  eV     1   --> A_1  L_1       
     e(  8 -  8) =     24.71961  eV     1   --> A_1  L_1       
     e(  9 - 10) =     34.09990  eV     2   --> E    L_3       

 **************************************************************************

 **************************************************************************

                    xk=(   0.42500,   0.42500,   0.42500  )

     Band symmetry, C_3v (3m)   point group:

     e(  1 -  1) =      1.93737  eV     1   --> A_1  L_1       
     e(  2 -  2) =      5.98771  eV     1   --> A_1  L_1       
     e(  3 -  4) =     19.74621  eV     2   --> E    L_3       
     e(  5 -  6) =     20.94642  eV     2   --> E    L_3       
     e(  7 -  7) =     23.57978  eV     1   --> A_1  L_1       
     e(  8 -  8) =     25.00784  eV     1   --> A_1  L_1       
     e(  9 - 10) =     33.38744  eV     2   --> E    L_3       

 **************************************************************************

 **************************************************************************

                    xk=(   0.40000,   0.40000,   0.40000  )

     Band symmetry, C_3v (3m)   point group:

     e(  1 -  1) =      1.37156  eV     1   --> A_1  L_1       
     e(  2 -  2) =      6.76213  eV     1   --> A_1  L_1       
     e(  3 -  4) =     19.64868  eV     2   --> E    L_3       
     e(  5 -  6) =     21.25048  eV     2   --> E    L_3       
     e(  7 -  7) =     23.45666  eV     1   --> A_1  L_1       
     e(  8 -  8) =     25.32734  eV     1   --> A_1  L_1       
     e(  9 - 10) =     32.60218  eV     2   --> E    L_3       

 **************************************************************************

 **************************************************************************

                    xk=(   0.37500,   0.37500,   0.37500  )

     Band symmetry, C_3v (3m)   point group:

     e(  1 -  1) =      0.83697  eV     1   --> A_1  L_1       
     e(  2 -  2) =      7.56494  eV     1   --> A_1  L_1       
     e(  3 -  4) =     19.58040  eV     2   --> E    L_3       
     e(  5 -  6) =     21.58385  eV     2   --> E    L_3       
     e(  7 -  7) =     23.36015  eV     1   --> A_1  L_1       
     e(  8 -  8) =     25.67360  eV     1   --> A_1  L_1       
     e(  9 - 10) =     31.79436  eV     2   --> E    L_3       

 **************************************************************************

 **************************************************************************

                    xk=(   0.35000,   0.35000,   0.35000  )

     Band symmetry, C_3v (3m)   point group:

     e(  1 -  1) =      0.33424  eV     1   --> A_1  L_1       
     e(  2 -  2) =      8.39545  eV     1   --> A_1  L_1       
     e(  3 -  4) =     19.54123  eV     2   --> E    L_3       
     e(  5 -  6) =     21.94609  eV     2   --> E    L_3       
     e(  7 -  7) =     23.29079  eV     1   --> A_1  L_1       
     e(  8 -  8) =     26.04393  eV     1   --> A_1  L_1       
     e(  9 - 10) =     30.98921  eV     2   --> E    L_3       

 **************************************************************************

 **************************************************************************

                    xk=(   0.32500,   0.32500,   0.32500  )

     Band symmetry, C_3v (3m)   point group:

     e(  1 -  1) =     -0.13609  eV     1   --> A_1  L_1       
     e(  2 -  2) =      9.25431  eV     1   --> A_1  L_1       
     e(  3 -  4) =     19.53240  eV     2   --> E    L_3       
     e(  5 -  6) =     22.33663  eV     2   --> E    L_3       
     e(  7 -  7) =     23.25052  eV     1   --> A_1  L_1       
     e(  8 -  8) =     26.43693  eV     1   --> A_1  L_1       
     e(  9 - 10) =     30.20302  eV     2   --> E    L_3       

 **************************************************************************

 **************************************************************************

                    xk=(   0.30000,   0.30000,   0.30000  )

     Band symmetry, C_3v (3m)   point group:

     e(  1 -  1) =     -0.57475  eV     1   --> A_1  L_1       
     e(  2 -  2) =     10.13776  eV     1   --> A_1  L_1       
     e(  3 -  4) =     19.54893  eV     2   --> E    L_3       
     e(  5 -  6) =     22.75285  eV     2   --> E    L_3       
     e(  7 -  7) =     23.23232  eV     1   --> A_1  L_1       
     e(  8 -  8) =     26.84821  eV     1   --> A_1  L_1       
     e(  9 - 10) =     29.43376  eV     2   --> E    L_3       

 **************************************************************************

 **************************************************************************

                    xk=(   0.27500,   0.27500,   0.27500  )

     Band symmetry, C_3v (3m)   point group:

     e(  1 -  1) =     -0.97899  eV     1   --> A_1  L_1       
     e(  2 -  2) =     11.04745  eV     1   --> A_1  L_1       
     e(  3 -  4) =     19.59583  eV     2   --> E    L_3       
     e(  5 -  6) =     23.19405  eV     2   --> E    L_3       
     e(  7 -  7) =     23.23914  eV     1   --> A_1  L_1       
     e(  8 -  8) =     27.27637  eV     1   --> A_1  L_1       
     e(  9 - 10) =     28.70126  eV     2   --> E    L_3       

 **************************************************************************

 **************************************************************************

                    xk=(   0.25000,   0.25000,   0.25000  )

     Band symmetry, C_3v (3m)   point group:

     e(  1 -  1) =     -1.34952  eV     1   --> A_1  L_1       
     e(  2 -  2) =     11.98216  eV     1   --> A_1  L_1       
     e(  3 -  4) =     19.67117  eV     2   --> E    L_3       
     e(  5 -  5) =     23.26953  eV     1   --> A_1  L_1       
     e(  6 -  7) =     23.65447  eV     2   --> E    L_3       
     e(  8 -  8) =     27.72144  eV     1   --> A_1  L_1       
     e(  9 - 10) =     28.00722  eV     2   --> E    L_3       

 **************************************************************************

 **************************************************************************

                    xk=(   0.22500,   0.22500,   0.22500  )

     Band symmetry, C_3v (3m)   point group:

     e(  1 -  1) =     -1.68711  eV     1   --> A_1  L_1       
     e(  2 -  2) =     12.93866  eV     1   --> A_1  L_1       
     e(  3 -  4) =     19.77411  eV     2   --> E    L_3       
     e(  5 -  5) =     23.31556  eV     1   --> A_1  L_1       
     e(  6 -  7) =     24.12257  eV     2   --> E    L_3       
     e(  8 -  9) =     27.36296  eV     2   --> E    L_3       
     e( 10 - 10) =     28.17339  eV     1   --> A_1  L_1       

 **************************************************************************

 **************************************************************************

                    xk=(   0.20000,   0.20000,   0.20000  )

     Band symmetry, C_3v (3m)   point group:

     e(  1 -  1) =     -1.99111  eV     1   --> A_1  L_1       
     e(  2 -  2) =     13.91710  eV     1   --> A_1  L_1       
     e(  3 -  4) =     19.90283  eV     2   --> E    L_3       
     e(  5 -  5) =     23.37630  eV     1   --> A_1  L_1       
     e(  6 -  7) =     24.56577  eV     2   --> E    L_3       
     e(  8 -  9) =     26.79815  eV     2   --> E    L_3       
     e( 10 - 10) =     28.63145  eV     1   --> A_1  L_1       

 **************************************************************************

 **************************************************************************

                    xk=(   0.17500,   0.17500,   0.17500  )

     Band symmetry, C_3v (3m)   point group:

     e(  1 -  1) =     -2.25830  eV     1   --> A_1  L_1       
     e(  2 -  2) =     14.92190  eV     1   --> A_1  L_1       
     e(  3 -  4) =     20.06125  eV     2   --> E    L_3       
     e(  5 -  5) =     23.44645  eV     1   --> A_1  L_1       
     e(  6 -  7) =     24.89045  eV     2   --> E    L_3       
     e(  8 -  9) =     26.42091  eV     2   --> E    L_3       
     e( 10 - 10) =     29.09142  eV     1   --> A_1  L_1       

 **************************************************************************

 **************************************************************************

                    xk=(   0.15000,   0.15000,   0.15000  )

     Band symmetry, C_3v (3m)   point group:

     e(  1 -  1) =     -2.49071  eV     1   --> A_1  L_1       
     e(  2 -  2) =     15.94175  eV     1   --> A_1  L_1       
     e(  3 -  4) =     20.24475  eV     2   --> E    L_3       
     e(  5 -  5) =     23.51825  eV     1   --> A_1  L_1       
     e(  6 -  7) =     24.86266  eV     2   --> E    L_3       
     e(  8 -  9) =     26.44139  eV     2   --> E    L_3       
     e( 10 - 10) =     29.54530  eV     1   --> A_1  L_1       

 **************************************************************************

 **************************************************************************

                    xk=(   0.12500,   0.12500,   0.12500  )

     Band symmetry, C_3v (3m)   point group:

     e(  1 -  1) =     -2.68782  eV     1   --> A_1  L_1       
     e(  2 -  2) =     16.97604  eV     1   --> A_1  L_1       
     e(  3 -  4) =     20.45209  eV     2   --> E    L_3       
     e(  5 -  5) =     23.58153  eV     1   --> A_1  L_1       
     e(  6 -  7) =     24.52311  eV     2   --> E    L_3       
     e(  8 -  9) =     26.82215  eV     2   --> E    L_3       
     e( 10 - 10) =     28.98554  eV     1   --> A_1  L_1       

 **************************************************************************

 **************************************************************************

                    xk=(   0.10000,   0.10000,   0.10000  )

     Band symmetry, C_3v (3m)   point group:

     e(  1 -  1) =     -2.84940  eV     1   --> A_1  L_1       
     e(  2 -  2) =     18.01830  eV     1   --> A_1  L_1       
     e(  3 -  4) =     20.67959  eV     2   --> E    L_3       
     e(  5 -  5) =     23.62018  eV     1   --> A_1  L_1       
     e(  6 -  7) =     24.09736  eV     2   --> E    L_3       
     e(  8 -  9) =     27.32865  eV     2   --> E    L_3       
     e( 10 - 10) =     27.95556  eV     1   --> A_1  L_1       

 **************************************************************************

 **************************************************************************

                    xk=(   0.07500,   0.07500,   0.07500  )

     Band symmetry, C_3v (3m)   point group:

     e(  1 -  1) =     -2.97513  eV     1   --> A_1  L_1       
     e(  2 -  2) =     19.05688  eV     1   --> A_1  L_1       
     e(  3 -  4) =     20.91991  eV     2   --> E    L_3       
     e(  5 -  5) =     23.61204  eV     1   --> A_1  L_1       
     e(  6 -  7) =     23.67838  eV     2   --> E    L_3       
     e(  8 -  8) =     26.97130  eV     1   --> A_1  L_1       
     e(  9 - 10) =     27.85405  eV     2   --> E    L_3       

 **************************************************************************

 **************************************************************************

                    xk=(   0.05000,   0.05000,   0.05000  )

     Band symmetry, C_3v (3m)   point group:

     e(  1 -  1) =     -3.06514  eV     1   --> A_1  L_1       
     e(  2 -  2) =     20.06523  eV     1   --> A_1  L_1       
     e(  3 -  4) =     21.15663  eV     2   --> E    L_3       
     e(  5 -  6) =     23.30607  eV     2   --> E    L_3       
     e(  7 -  7) =     23.48577  eV     1   --> A_1  L_1       
     e(  8 -  8) =     26.11542  eV     1   --> A_1  L_1       
     e(  9 - 10) =     28.33063  eV     2   --> E    L_3       

 **************************************************************************

 **************************************************************************

                    xk=(   0.02500,   0.02500,   0.02500  )

     Band symmetry, C_3v (3m)   point group:

     e(  1 -  1) =     -3.11918  eV     1   --> A_1  L_1       
     e(  2 -  2) =     20.96653  eV     1   --> A_1  L_1       
     e(  3 -  4) =     21.35211  eV     2   --> E    L_3       
     e(  5 -  6) =     23.02714  eV     2   --> E    L_3       
     e(  7 -  7) =     23.18219  eV     1   --> A_1  L_1       
     e(  8 -  8) =     25.53339  eV     1   --> A_1  L_1       
     e(  9 - 10) =     28.68141  eV     2   --> E    L_3       

 **************************************************************************

 **************************************************************************

                    xk=(   0.00000,   0.00000,   0.00000  )

     point group O_h (m-3m) 
     there are 10 classes
     the character table:

       E     8C3   3C2   6C4   6C2'  i     8S6   3s_h  6S4   6s_d 
A_1g   1.00  1.00  1.00  1.00  1.00  1.00  1.00  1.00  1.00  1.00
A_2g   1.00  1.00  1.00 -1.00 -1.00  1.00  1.00  1.00 -1.00 -1.00
E_g    2.00 -1.00  2.00  0.00  0.00  2.00 -1.00  2.00  0.00  0.00
T_1g   3.00  0.00 -1.00  1.00 -1.00  3.00  0.00 -1.00  1.00 -1.00
T_2g   3.00  0.00 -1.00 -1.00  1.00  3.00  0.00 -1.00 -1.00  1.00
A_1u   1.00  1.00  1.00  1.00  1.00 -1.00 -1.00 -1.00 -1.00 -1.00
A_2u   1.00  1.00  1.00 -1.00 -1.00 -1.00 -1.00 -1.00  1.00  1.00
E_u    2.00 -1.00  2.00  0.00  0.00 -2.00  1.00 -2.00  0.00  0.00
T_1u   3.00  0.00 -1.00  1.00 -1.00 -3.00  0.00  1.00 -1.00  1.00
T_2u   3.00  0.00 -1.00 -1.00  1.00 -3.00  0.00  1.00  1.00 -1.00

     the symmetry operations in each class and the name of the first element:

     E        1
                                                                 
     8C3     17   19   20   18   24   21   22   23
                                                                 
     3C2      2    4    3
                                                                 
     6C4      7    8   15   16   12   11
                                                                 
     6C2'     5    6   14   13   10    9
                                                                 
     i       25
                                                                 
     8S6     41   43   44   42   48   45   46   47
                                                                 
     3s_h    26   28   27
                                                                 
     6S4     31   32   39   40   36   35
                                                                 
     6s_d    29   30   38   37   34   33
                                                                 

     Band symmetry, O_h (m-3m)  point group:

     e(  1 -  1) =     -3.13721  eV     1   --> A_1g G_1   G_1+
     e(  2 -  4) =     21.43426  eV     3   --> T_2g G_25' G_5+
     e(  5 -  7) =     22.91688  eV     3   --> T_1u G_15  G_4-
     e(  8 -  8) =     25.33621  eV     1   --> A_2u G_2'  G_2-
     e(  9 - 10) =     28.81423  eV     2   --> E_g  G_12  G_3+

 **************************************************************************

 **************************************************************************

                    xk=(   0.03333,   0.00000,   0.00000  )

     point group C_4v (4mm) 
     there are  5 classes
     the character table:

       E     2C4   C2    2s_v  2s_d 
A_1    1.00  1.00  1.00  1.00  1.00
A_2    1.00  1.00  1.00 -1.00 -1.00
B_1    1.00 -1.00  1.00  1.00 -1.00
B_2    1.00 -1.00  1.00 -1.00  1.00
E      2.00  0.00 -2.00  0.00  0.00

     the symmetry operations in each class and the name of the first element:

     E        1
                                                                 
     2C4      3    4
                                                                 
     C2       2
                                                                 
     2s_v     5    6
                                                                 
     2s_d     7    8
                                                                 

     Band symmetry, C_4v (4mm)  point group:

     e(  1 -  1) =     -3.12653  eV     1   --> A_1  G_1 D_1   
     e(  2 -  3) =     21.27514  eV     2   --> E    G_5 D_5   
     e(  4 -  4) =     21.34262  eV     1   --> B_2  G_4 D_2'  
     e(  5 -  5) =     22.89361  eV     1   --> A_1  G_1 D_1   
     e(  6 -  7) =     23.09221  eV     2   --> E    G_5 D_5   
     e(  8 -  8) =     25.44906  eV     1   --> B_2  G_4 D_2'  
     e(  9 -  9) =     28.64405  eV     1   --> A_1  G_1 D_1   
     e( 10 - 10) =     28.82430  eV     1   --> B_1  G_3 D_2   

 **************************************************************************

 **************************************************************************

                    xk=(   0.06667,   0.00000,   0.00000  )

     Band symmetry, C_4v (4mm)  point group:

     e(  1 -  1) =     -3.09449  eV     1   --> A_1  G_1 D_1   
     e(  2 -  3) =     20.92261  eV     2   --> E    G_5 D_5   
     e(  4 -  4) =     21.09443  eV     1   --> B_2  G_4 D_2'  
     e(  5 -  5) =     22.82499  eV     1   --> A_1  G_1 D_1   
     e(  6 -  7) =     23.49325  eV     2   --> E    G_5 D_5   
     e(  8 -  8) =     25.76088  eV     1   --> B_2  G_4 D_2'  
     e(  9 -  9) =     28.17081  eV     1   --> A_1  G_1 D_1   
     e( 10 - 10) =     28.85452  eV     1   --> B_1  G_3 D_2   

 **************************************************************************

 **************************************************************************

                    xk=(   0.10000,   0.00000,   0.00000  )

     Band symmetry, C_4v (4mm)  point group:

     e(  1 -  1) =     -3.04113  eV     1   --> A_1  G_1 D_1   
     e(  2 -  3) =     20.50861  eV     2   --> E    G_5 D_5   
     e(  4 -  4) =     20.74372  eV     1   --> B_2  G_4 D_2'  
     e(  5 -  5) =     22.71439  eV     1   --> A_1  G_1 D_1   
     e(  6 -  7) =     23.98772  eV     2   --> E    G_5 D_5   
     e(  8 -  8) =     26.21764  eV     1   --> B_2  G_4 D_2'  
     e(  9 -  9) =     27.48677  eV     1   --> A_1  G_1 D_1   
     e( 10 - 10) =     28.90487  eV     1   --> B_1  G_3 D_2   

 **************************************************************************

 **************************************************************************

                    xk=(   0.13333,   0.00000,   0.00000  )

     Band symmetry, C_4v (4mm)  point group:

     e(  1 -  1) =     -2.96647  eV     1   --> A_1  G_1 D_1   
     e(  2 -  3) =     20.08108  eV     2   --> E    G_5 D_5   
     e(  4 -  4) =     20.33675  eV     1   --> B_2  G_4 D_2'  
     e(  5 -  5) =     22.56675  eV     1   --> A_1  G_1 D_1   
     e(  6 -  7) =     24.52707  eV     2   --> E    G_5 D_5   
     e(  8 -  8) =     26.68199  eV     1   --> A_1  G_1 D_1   
     e(  9 -  9) =     26.77308  eV     1   --> B_2  G_4 D_2'  
     e( 10 - 10) =     28.97530  eV     1   --> B_1  G_3 D_2   

 **************************************************************************

 **************************************************************************

                    xk=(   0.16667,   0.00000,   0.00000  )

     Band symmetry, C_4v (4mm)  point group:

     e(  1 -  1) =     -2.87056  eV     1   --> A_1  G_1 D_1   
     e(  2 -  3) =     19.65668  eV     2   --> E    G_5 D_5   
     e(  4 -  4) =     19.90325  eV     1   --> B_2  G_4 D_2'  
     e(  5 -  5) =     22.38786  eV     1   --> A_1  G_1 D_1   
     e(  6 -  7) =     25.09375  eV     2   --> E    G_5 D_5   
     e(  8 -  8) =     25.81422  eV     1   --> A_1  G_1 D_1   
     e(  9 -  9) =     27.39745  eV     1   --> B_2  G_4 D_2'  
     e( 10 - 10) =     29.06577  eV     1   --> B_1  G_3 D_2   

 **************************************************************************

 **************************************************************************

                    xk=(   0.20000,   0.00000,   0.00000  )

     Band symmetry, C_4v (4mm)  point group:

     e(  1 -  1) =     -2.75363  eV     1   --> A_1  G_1 D_1   
     e(  2 -  3) =     19.24208  eV     2   --> E    G_5 D_5   
     e(  4 -  4) =     19.45927  eV     1   --> B_2  G_4 D_2'  
     e(  5 -  5) =     22.17798  eV     1   --> A_1  G_1 D_1   
     e(  6 -  6) =     24.91526  eV     1   --> A_1  G_1 D_1   
     e(  7 -  8) =     25.67677  eV     2   --> E    G_5 D_5   
     e(  9 -  9) =     28.07307  eV     1   --> B_2  G_4 D_2'  
     e( 10 - 10) =     29.17620  eV     1   --> B_1  G_3 D_2   

 **************************************************************************

 **************************************************************************

                    xk=(   0.23333,   0.00000,   0.00000  )

     Band symmetry, C_4v (4mm)  point group:

     e(  1 -  1) =     -2.61543  eV     1   --> A_1  G_1 D_1   
     e(  2 -  3) =     18.84093  eV     2   --> E    G_5 D_5   
     e(  4 -  4) =     19.01816  eV     1   --> B_2  G_4 D_2'  
     e(  5 -  5) =     21.95386  eV     1   --> A_1  G_1 D_1   
     e(  6 -  6) =     24.00337  eV     1   --> A_1  G_1 D_1   
     e(  7 -  8) =     26.27689  eV     2   --> E    G_5 D_5   
     e(  9 -  9) =     28.78981  eV     1   --> B_2  G_4 D_2'  
     e( 10 - 10) =     29.30651  eV     1   --> B_1  G_3 D_2   

 **************************************************************************

 **************************************************************************

                    xk=(   0.26667,   0.00000,   0.00000  )

     Band symmetry, C_4v (4mm)  point group:

     e(  1 -  1) =     -2.45621  eV     1   --> A_1  G_1 D_1   
     e(  2 -  3) =     18.45473  eV     2   --> E    G_5 D_5   
     e(  4 -  4) =     18.58476  eV     1   --> B_2  G_4 D_2'  
     e(  5 -  5) =     21.71548  eV     1   --> A_1  G_1 D_1   
     e(  6 -  6) =     23.08842  eV     1   --> A_1  G_1 D_1   
     e(  7 -  8) =     26.88786  eV     2   --> E    G_5 D_5   
     e(  9 -  9) =     29.45658  eV     1   --> B_1  G_3 D_2   
     e( 10 - 10) =     29.54123  eV     1   --> B_2  G_4 D_2'  

 **************************************************************************

 **************************************************************************

                    xk=(   0.30000,   0.00000,   0.00000  )

     Band symmetry, C_4v (4mm)  point group:

     e(  1 -  1) =     -2.27608  eV     1   --> A_1  G_1 D_1   
     e(  2 -  3) =     18.08449  eV     2   --> E    G_5 D_5   
     e(  4 -  4) =     18.16301  eV     1   --> B_2  G_4 D_2'  
     e(  5 -  5) =     21.46745  eV     1   --> A_1  G_1 D_1   
     e(  6 -  6) =     22.17665  eV     1   --> A_1  G_1 D_1   
     e(  7 -  8) =     27.50633  eV     2   --> E    G_5 D_5   
     e(  9 -  9) =     29.62627  eV     1   --> B_1  G_3 D_2   
     e( 10 - 10) =     30.32336  eV     1   --> B_2  G_4 D_2'  

 **************************************************************************

 **************************************************************************

                    xk=(   0.33333,   0.00000,   0.00000  )

     Band symmetry, C_4v (4mm)  point group:

     e(  1 -  1) =     -2.07396  eV     1   --> A_1  G_1 D_1   
     e(  2 -  3) =     17.73204  eV     2   --> E    G_5 D_5   
     e(  4 -  4) =     17.75552  eV     1   --> B_2  G_4 D_2'  
     e(  5 -  5) =     21.21434  eV     1   --> A_1  G_1 D_1   
     e(  6 -  6) =     21.27586  eV     1   --> A_1  G_1 D_1   
     e(  7 -  8) =     28.12989  eV     2   --> E    G_5 D_5   
     e(  9 -  9) =     29.81565  eV     1   --> B_1  G_3 D_2   
     e( 10 - 10) =     31.13359  eV     1   --> B_2  G_4 D_2'  

 **************************************************************************

 **************************************************************************

                    xk=(   0.36667,   0.00000,   0.00000  )

     Band symmetry, C_4v (4mm)  point group:

     e(  1 -  1) =     -1.85243  eV     1   --> A_1  G_1 D_1   
     e(  2 -  2) =     17.36403  eV     1   --> B_2  G_4 D_2'  
     e(  3 -  4) =     17.39517  eV     2   --> E    G_5 D_5   
     e(  5 -  5) =     20.38051  eV     1   --> A_1  G_1 D_1   
     e(  6 -  6) =     20.95848  eV     1   --> A_1  G_1 D_1   
     e(  7 -  8) =     28.75293  eV     2   --> E    G_5 D_5   
     e(  9 -  9) =     30.02401  eV     1   --> B_1  G_3 D_2   
     e( 10 - 10) =     31.97016  eV     1   --> B_2  G_4 D_2'  

 **************************************************************************

 **************************************************************************

                    xk=(   0.40000,   0.00000,   0.00000  )

     Band symmetry, C_4v (4mm)  point group:

     e(  1 -  1) =     -1.61077  eV     1   --> A_1  G_1 D_1   
     e(  2 -  2) =     16.98502  eV     1   --> B_2  G_4 D_2'  
     e(  3 -  4) =     17.07471  eV     2   --> E    G_5 D_5   
     e(  5 -  5) =     19.49272  eV     1   --> A_1  G_1 D_1   
     e(  6 -  6) =     20.70187  eV     1   --> A_1  G_1 D_1   
     e(  7 -  8) =     29.36271  eV     2   --> E    G_5 D_5   
     e(  9 -  9) =     30.24674  eV     1   --> B_1  G_3 D_2   
     e( 10 - 10) =     32.83176  eV     1   --> B_2  G_4 D_2'  

 **************************************************************************

 **************************************************************************

                    xk=(   0.43333,   0.00000,   0.00000  )

     Band symmetry, C_4v (4mm)  point group:

     e(  1 -  1) =     -1.34836  eV     1   --> A_1  G_1 D_1   
     e(  2 -  2) =     16.62883  eV     1   --> B_2  G_4 D_2'  
     e(  3 -  4) =     16.77226  eV     2   --> E    G_5 D_5   
     e(  5 -  5) =     18.62193  eV     1   --> A_1  G_1 D_1   
     e(  6 -  6) =     20.45003  eV     1   --> A_1  G_1 D_1   
     e(  7 -  8) =     29.97463  eV     2   --> E    G_5 D_5   
     e(  9 -  9) =     30.49250  eV     1   --> B_1  G_3 D_2   
     e( 10 - 10) =     33.71760  eV     1   --> B_2  G_4 D_2'  

 **************************************************************************

 **************************************************************************

                    xk=(   0.46667,   0.00000,   0.00000  )

     Band symmetry, C_4v (4mm)  point group:

     e(  1 -  1) =     -1.06578  eV     1   --> A_1  G_1 D_1   
     e(  2 -  2) =     16.29132  eV     1   --> B_2  G_4 D_2'  
     e(  3 -  4) =     16.48720  eV     2   --> E    G_5 D_5   
     e(  5 -  5) =     17.76467  eV     1   --> A_1  G_1 D_1   
     e(  6 -  6) =     20.19209  eV     1   --> A_1  G_1 D_1   
     e(  7 -  8) =     30.57396  eV     2   --> E    G_5 D_5   
     e(  9 -  9) =     30.75650  eV     1   --> B_1  G_3 D_2   
     e( 10 - 10) =     34.62697  eV     1   --> B_2  G_4 D_2'  

 **************************************************************************

 **************************************************************************

                    xk=(   0.50000,   0.00000,   0.00000  )

     Band symmetry, C_4v (4mm)  point group:

     e(  1 -  1) =     -0.76318  eV     1   --> A_1  G_1 D_1   
     e(  2 -  2) =     15.97308  eV     1   --> B_2  G_4 D_2'  
     e(  3 -  4) =     16.21963  eV     2   --> E    G_5 D_5   
     e(  5 -  5) =     16.92230  eV     1   --> A_1  G_1 D_1   
     e(  6 -  6) =     19.95234  eV     1   --> A_1  G_1 D_1   
     e(  7 -  7) =     31.03823  eV     1   --> B_1  G_3 D_2   
     e(  8 -  9) =     31.15995  eV     2   --> E    G_5 D_5   
     e( 10 - 10) =     35.55936  eV     1   --> B_2  G_4 D_2'  

 **************************************************************************

 **************************************************************************

                    xk=(   0.53333,   0.00000,   0.00000  )

     Band symmetry, C_4v (4mm)  point group:

     e(  1 -  1) =     -0.44078  eV     1   --> A_1  G_1 D_1   
     e(  2 -  2) =     15.67443  eV     1   --> B_2  G_4 D_2'  
     e(  3 -  4) =     15.96955  eV     2   --> E    G_5 D_5   
     e(  5 -  5) =     16.09492  eV     1   --> A_1  G_1 D_1   
     e(  6 -  6) =     19.72161  eV     1   --> A_1  G_1 D_1   
     e(  7 -  7) =     31.33704  eV     1   --> B_1  G_3 D_2   
     e(  8 -  9) =     31.72880  eV     2   --> E    G_5 D_5   
     e( 10 - 10) =     36.51438  eV     1   --> B_2  G_4 D_2'  

 **************************************************************************

 **************************************************************************

                    xk=(   0.56667,   0.00000,   0.00000  )

     Band symmetry, C_4v (4mm)  point group:

     e(  1 -  1) =     -0.09450  eV     1   --> A_1  G_1 D_1   
     e(  2 -  2) =     15.28529  eV     1   --> A_1  G_1 D_1   
     e(  3 -  3) =     15.39576  eV     1   --> B_2  G_4 D_2'  
     e(  4 -  5) =     15.74439  eV     2   --> E    G_5 D_5   
     e(  6 -  6) =     19.50191  eV     1   --> A_1  G_1 D_1   
     e(  7 -  7) =     31.66661  eV     1   --> B_1  G_3 D_2   
     e(  8 -  9) =     32.28750  eV     2   --> E    G_5 D_5   
     e( 10 - 10) =     37.22563  eV     1   --> A_1  G_1 D_1   

 **************************************************************************

 **************************************************************************

                    xk=(   0.60000,   0.00000,   0.00000  )

     Band symmetry, C_4v (4mm)  point group:

     e(  1 -  1) =      0.26665  eV     1   --> A_1  G_1 D_1   
     e(  2 -  2) =     14.48888  eV     1   --> A_1  G_1 D_1   
     e(  3 -  3) =     15.13705  eV     1   --> B_2  G_4 D_2'  
     e(  4 -  5) =     15.52873  eV     2   --> E    G_5 D_5   
     e(  6 -  6) =     19.29349  eV     1   --> A_1  G_1 D_1   
     e(  7 -  7) =     31.99660  eV     1   --> B_1  G_3 D_2   
     e(  8 -  9) =     32.81893  eV     2   --> E    G_5 D_5   
     e( 10 - 10) =     37.78090  eV     1   --> A_1  G_1 D_1   

 **************************************************************************

 **************************************************************************

                    xk=(   0.63333,   0.00000,   0.00000  )

     Band symmetry, C_4v (4mm)  point group:

     e(  1 -  1) =      0.64687  eV     1   --> A_1  G_1 D_1   
     e(  2 -  2) =     13.70852  eV     1   --> A_1  G_1 D_1   
     e(  3 -  3) =     14.89860  eV     1   --> B_2  G_4 D_2'  
     e(  4 -  5) =     15.33054  eV     2   --> E    G_5 D_5   
     e(  6 -  6) =     19.09795  eV     1   --> A_1  G_1 D_1   
     e(  7 -  7) =     32.34050  eV     1   --> B_1  G_3 D_2   
     e(  8 -  9) =     33.33215  eV     2   --> E    G_5 D_5   
     e( 10 - 10) =     38.33727  eV     1   --> A_1  G_1 D_1   

 **************************************************************************

 **************************************************************************

                    xk=(   0.66667,   0.00000,   0.00000  )

     Band symmetry, C_4v (4mm)  point group:

     e(  1 -  1) =      1.04583  eV     1   --> A_1  G_1 D_1   
     e(  2 -  2) =     12.94451  eV     1   --> A_1  G_1 D_1   
     e(  3 -  3) =     14.68055  eV     1   --> B_2  G_4 D_2'  
     e(  4 -  5) =     15.14977  eV     2   --> E    G_5 D_5   
     e(  6 -  6) =     18.91630  eV     1   --> A_1  G_1 D_1   
     e(  7 -  7) =     32.69655  eV     1   --> B_1  G_3 D_2   
     e(  8 -  9) =     33.82851  eV     2   --> E    G_5 D_5   
     e( 10 - 10) =     38.89012  eV     1   --> A_1  G_1 D_1   

 **************************************************************************

 **************************************************************************

                    xk=(   0.70000,   0.00000,   0.00000  )

     Band symmetry, C_4v (4mm)  point group:

     e(  1 -  1) =      1.46317  eV     1   --> A_1  G_1 D_1   
     e(  2 -  2) =     12.19720  eV     1   --> A_1  G_1 D_1   
     e(  3 -  3) =     14.48302  eV     1   --> B_2  G_4 D_2'  
     e(  4 -  5) =     14.98640  eV     2   --> E    G_5 D_5   
     e(  6 -  6) =     18.74942  eV     1   --> A_1  G_1 D_1   
     e(  7 -  7) =     33.06239  eV     1   --> B_1  G_3 D_2   
     e(  8 -  9) =     34.30941  eV     2   --> E    G_5 D_5   
     e( 10 - 10) =     39.43398  eV     1   --> A_1  G_1 D_1   

 **************************************************************************

 **************************************************************************

                    xk=(   0.73333,   0.00000,   0.00000  )

     Band symmetry, C_4v (4mm)  point group:

     e(  1 -  1) =      1.89842  eV     1   --> A_1  G_1 D_1   
     e(  2 -  2) =     11.46698  eV     1   --> A_1  G_1 D_1   
     e(  3 -  3) =     14.30609  eV     1   --> B_2  G_4 D_2'  
     e(  4 -  5) =     14.84037  eV     2   --> E    G_5 D_5   
     e(  6 -  6) =     18.59811  eV     1   --> A_1  G_1 D_1   
     e(  7 -  7) =     33.43482  eV     1   --> B_1  G_3 D_2   
     e(  8 -  9) =     34.77579  eV     2   --> E    G_5 D_5   
     e( 10 - 10) =     39.96243  eV     1   --> A_1  G_1 D_1   

 **************************************************************************

 **************************************************************************

                    xk=(   0.76667,   0.00000,   0.00000  )

     Band symmetry, C_4v (4mm)  point group:

     e(  1 -  1) =      2.35144  eV     1   --> A_1  G_1 D_1   
     e(  2 -  2) =     10.75499  eV     1   --> A_1  G_1 D_1   
     e(  3 -  3) =     14.14984  eV     1   --> B_2  G_4 D_2'  
     e(  4 -  5) =     14.71165  eV     2   --> E    G_5 D_5   
     e(  6 -  6) =     18.46338  eV     1   --> A_1  G_1 D_1   
     e(  7 -  7) =     33.80945  eV     1   --> B_1  G_3 D_2   
     e(  8 -  9) =     35.22751  eV     2   --> E    G_5 D_5   
     e( 10 - 10) =     40.47453  eV     1   --> A_1  G_1 D_1   

 **************************************************************************

 **************************************************************************

                    xk=(   0.80000,   0.00000,   0.00000  )

     Band symmetry, C_4v (4mm)  point group:

     e(  1 -  1) =      2.82031  eV     1   --> A_1  G_1 D_1   
     e(  2 -  2) =     10.06084  eV     1   --> A_1  G_1 D_1   
     e(  3 -  3) =     14.01433  eV     1   --> B_2  G_4 D_2'  
     e(  4 -  5) =     14.60019  eV     2   --> E    G_5 D_5   
     e(  6 -  6) =     18.34515  eV     1   --> A_1  G_1 D_1   
     e(  7 -  7) =     34.18019  eV     1   --> B_1  G_3 D_2   
     e(  8 -  9) =     35.66260  eV     2   --> E    G_5 D_5   
     e( 10 - 10) =     40.94837  eV     1   --> A_1  G_1 D_1   

 **************************************************************************

 **************************************************************************

                    xk=(   0.83333,   0.00000,   0.00000  )

     Band symmetry, C_4v (4mm)  point group:

     e(  1 -  1) =      3.30412  eV     1   --> A_1  G_1 D_1   
     e(  2 -  2) =      9.38655  eV     1   --> A_1  G_1 D_1   
     e(  3 -  3) =     13.89960  eV     1   --> B_2  G_4 D_2'  
     e(  4 -  5) =     14.50597  eV     2   --> E    G_5 D_5   
     e(  6 -  6) =     18.24427  eV     1   --> A_1  G_1 D_1   
     e(  7 -  7) =     34.53855  eV     1   --> B_1  G_3 D_2   
     e(  8 -  9) =     36.07642  eV     2   --> E    G_5 D_5   
     e( 10 - 10) =     41.38107  eV     1   --> A_1  G_1 D_1   

 **************************************************************************

 **************************************************************************

                    xk=(   0.86667,   0.00000,   0.00000  )

     Band symmetry, C_4v (4mm)  point group:

     e(  1 -  1) =      3.80026  eV     1   --> A_1  G_1 D_1   
     e(  2 -  2) =      8.73268  eV     1   --> A_1  G_1 D_1   
     e(  3 -  3) =     13.80374  eV     1   --> B_2  G_4 D_2'  
     e(  4 -  5) =     14.42806  eV     2   --> E    G_5 D_5   
     e(  6 -  6) =     18.16043  eV     1   --> A_1  G_1 D_1   
     e(  7 -  7) =     34.87277  eV     1   --> B_1  G_3 D_2   
     e(  8 -  9) =     36.45229  eV     2   --> E    G_5 D_5   
     e( 10 - 10) =     41.76131  eV     1   --> A_1  G_1 D_1   

 **************************************************************************

 **************************************************************************

                    xk=(   0.90000,   0.00000,   0.00000  )

     Band symmetry, C_4v (4mm)  point group:

     e(  1 -  1) =      4.30326  eV     1   --> A_1  G_1 D_1   
     e(  2 -  2) =      8.10858  eV     1   --> A_1  G_1 D_1   
     e(  3 -  3) =     13.73063  eV     1   --> B_2  G_4 D_2'  
     e(  4 -  5) =     14.36811  eV     2   --> E    G_5 D_5   
     e(  6 -  6) =     18.09543  eV     1   --> A_1  G_1 D_1   
     e(  7 -  7) =     35.16706  eV     1   --> B_1  G_3 D_2   
     e(  8 -  9) =     36.79208  eV     2   --> E    G_5 D_5   
     e( 10 - 10) =     42.07802  eV     1   --> A_1  G_1 D_1   

 **************************************************************************

 **************************************************************************

                    xk=(   0.93333,   0.00000,   0.00000  )

     Band symmetry, C_4v (4mm)  point group:

     e(  1 -  1) =      4.79902  eV     1   --> A_1  G_1 D_1   
     e(  2 -  2) =      7.52635  eV     1   --> A_1  G_1 D_1   
     e(  3 -  3) =     13.67840  eV     1   --> B_2  G_4 D_2'  
     e(  4 -  5) =     14.32531  eV     2   --> E    G_5 D_5   
     e(  6 -  6) =     18.04881  eV     1   --> A_1  G_1 D_1   
     e(  7 -  7) =     35.40155  eV     1   --> B_1  G_3 D_2   
     e(  8 -  9) =     37.06671  eV     2   --> E    G_5 D_5   
     e( 10 - 10) =     42.11229  eV     1   -->   ?

 **************************************************************************

 **************************************************************************

                    xk=(   0.96667,   0.00000,   0.00000  )

     Band symmetry, C_4v (4mm)  point group:

     e(  1 -  1) =      5.24092  eV     1   --> A_1  G_1 D_1   
     e(  2 -  2) =      7.03257  eV     1   --> A_1  G_1 D_1   
     e(  3 -  3) =     13.64706  eV     1   --> B_2  G_4 D_2'  
     e(  4 -  5) =     14.29964  eV     2   --> E    G_5 D_5   
     e(  6 -  6) =     18.02077  eV     1   --> A_1  G_1 D_1   
     e(  7 -  7) =     35.55451  eV     1   --> B_1  G_3 D_2   
     e(  8 -  9) =     37.24909  eV     2   --> E    G_5 D_5   
     e( 10 - 10) =     41.93008  eV     1   -->   ?

 **************************************************************************

 **************************************************************************

                    xk=(   1.00000,   0.00000,   0.00000  )

     point group D_4h(4/mmm)
     there are 10 classes
     the character table:

       E     2C4   C2    2C2'  2C2'' i     2S4   s_h   2s_v  2s_d 
A_1g   1.00  1.00  1.00  1.00  1.00  1.00  1.00  1.00  1.00  1.00
A_2g   1.00  1.00  1.00 -1.00 -1.00  1.00  1.00  1.00 -1.00 -1.00
B_1g   1.00 -1.00  1.00  1.00 -1.00  1.00 -1.00  1.00  1.00 -1.00
B_2g   1.00 -1.00  1.00 -1.00  1.00  1.00 -1.00  1.00 -1.00  1.00
E_g    2.00  0.00 -2.00  0.00  0.00  2.00  0.00 -2.00  0.00  0.00
A_1u   1.00  1.00  1.00  1.00  1.00 -1.00 -1.00 -1.00 -1.00 -1.00
A_2u   1.00  1.00  1.00 -1.00 -1.00 -1.00 -1.00 -1.00  1.00  1.00
B_1u   1.00 -1.00  1.00  1.00 -1.00 -1.00  1.00 -1.00 -1.00  1.00
B_2u   1.00 -1.00  1.00 -1.00  1.00 -1.00  1.00 -1.00  1.00 -1.00
E_u    2.00  0.00 -2.00  0.00  0.00 -2.00  0.00  2.00  0.00  0.00

     the symmetry operations in each class and the name of the first element:

     E        1
                                                                 
     2C4      7    8
                                                                 
     C2       4
                                                                 
     2C2'     2    3
                                                                 
     2C2''    5    6
                                                                 
     i        9
                                                                 
     2S4     15   16
                                                                 
     s_h     12
                                                                 
     2s_v    10   11
                                                                 
     2s_d    13   14
                                                                 

     Band symmetry, D_4h(4/mmm) point group:

     e(  1 -  1) =      5.45728  eV     1   --> A_2u X_4' M_4' 
     e(  2 -  2) =      6.79893  eV     1   --> A_1g X_1  M_1  
     e(  3 -  3) =     13.63661  eV     1   --> B_2g X_3  M_3  
     e(  4 -  5) =     14.29108  eV     2   --> E_u  X_5' M_5' 
     e(  6 -  6) =     18.01140  eV     1   --> A_1g X_1  M_1  
     e(  7 -  7) =     35.60790  eV     1   --> B_1g X_2  M_2  
     e(  8 -  9) =     37.31356  eV     2   --> E_g  X_5  M_5  
     e( 10 - 10) =     41.86424  eV     1   -->   ?

 **************************************************************************

 **************************************************************************

                    xk=(   1.00000,   0.02500,   0.02500  )

     point group C_2v (mm2) 
     there are  4 classes
     the character table:

       E     C2    s_v   s_v' 
A_1    1.00  1.00  1.00  1.00
A_2    1.00  1.00 -1.00 -1.00
B_1    1.00 -1.00  1.00 -1.00
B_2    1.00 -1.00 -1.00  1.00

     the symmetry operations in each class and the name of the first element:

     E        1
                                                                 
     C2       2
                                                                 
     s_v      4
                                                                 
     s_v'     3
                                                                 

     Band symmetry, C_2v (mm2)  point group:

     e(  1 -  1) =      5.46775  eV     1   --> B_1  D_3  S_3  
     e(  2 -  2) =      6.81030  eV     1   --> A_1  D_1  S_1  
     e(  3 -  3) =     13.26286  eV     1   --> A_1  D_1  S_1  
     e(  4 -  4) =     14.30080  eV     1   --> B_2  D_4  S_4  
     e(  5 -  5) =     14.59051  eV     1   --> A_1  D_1  S_1  
     e(  6 -  6) =     18.11463  eV     1   --> A_1  D_1  S_1  
     e(  7 -  7) =     35.51405  eV     1   --> B_2  D_4  S_4  
     e(  8 -  8) =     37.17733  eV     1   --> A_2  D_2  S_2  
     e(  9 -  9) =     37.20628  eV     1   --> B_1  D_3  S_3  
     e( 10 - 10) =     41.75620  eV     1   --> A_1  D_1  S_1  

 **************************************************************************

 **************************************************************************

                    xk=(   1.00000,   0.05000,   0.05000  )

     Band symmetry, C_2v (mm2)  point group:

     e(  1 -  1) =      5.49953  eV     1   --> B_1  D_3  S_3  
     e(  2 -  2) =      6.84497  eV     1   --> A_1  D_1  S_1  
     e(  3 -  3) =     12.64185  eV     1   --> A_1  D_1  S_1  
     e(  4 -  4) =     14.32998  eV     1   --> B_2  D_4  S_4  
     e(  5 -  5) =     14.99603  eV     1   --> A_1  D_1  S_1  
     e(  6 -  6) =     18.41905  eV     1   --> A_1  D_1  S_1  
     e(  7 -  7) =     35.25122  eV     1   --> B_2  D_4  S_4  
     e(  8 -  8) =     36.80995  eV     1   --> A_2  D_2  S_2  
     e(  9 -  9) =     36.91491  eV     1   --> B_1  D_3  S_3  
     e( 10 - 10) =     41.46289  eV     1   --> A_1  D_1  S_1  

 **************************************************************************

 **************************************************************************

                    xk=(   1.00000,   0.07500,   0.07500  )

     Band symmetry, C_2v (mm2)  point group:

     e(  1 -  1) =      5.55186  eV     1   --> B_1  D_3  S_3  
     e(  2 -  2) =      6.90139  eV     1   --> A_1  D_1  S_1  
     e(  3 -  3) =     11.96723  eV     1   --> A_1  D_1  S_1  
     e(  4 -  4) =     14.37863  eV     1   --> B_2  D_4  S_4  
     e(  5 -  5) =     15.33237  eV     1   --> A_1  D_1  S_1  
     e(  6 -  6) =     18.90167  eV     1   --> A_1  D_1  S_1  
     e(  7 -  7) =     34.86205  eV     1   --> B_2  D_4  S_4  
     e(  8 -  8) =     36.29186  eV     1   --> A_2  D_2  S_2  
     e(  9 -  9) =     36.48462  eV     1   --> B_1  D_3  S_3  
     e( 10 - 10) =     41.03948  eV     1   --> A_1  D_1  S_1  

 **************************************************************************

 **************************************************************************

                    xk=(   1.00000,   0.10000,   0.10000  )

     Band symmetry, C_2v (mm2)  point group:

     e(  1 -  1) =      5.62517  eV     1   --> B_1  D_3  S_3  
     e(  2 -  2) =      6.97963  eV     1   --> A_1  D_1  S_1  
     e(  3 -  3) =     11.27505  eV     1   --> A_1  D_1  S_1  
     e(  4 -  4) =     14.44676  eV     1   --> B_2  D_4  S_4  
     e(  5 -  5) =     15.60289  eV     1   --> A_1  D_1  S_1  
     e(  6 -  6) =     19.52568  eV     1   --> A_1  D_1  S_1  
     e(  7 -  7) =     34.39036  eV     1   --> B_2  D_4  S_4  
     e(  8 -  8) =     35.68848  eV     1   --> A_2  D_2  S_2  
     e(  9 -  9) =     35.97283  eV     1   --> B_1  D_3  S_3  
     e( 10 - 10) =     40.53874  eV     1   --> A_1  D_1  S_1  

 **************************************************************************

 **************************************************************************

                    xk=(   1.00000,   0.12500,   0.12500  )

     Band symmetry, C_2v (mm2)  point group:

     e(  1 -  1) =      5.71948  eV     1   --> B_1  D_3  S_3  
     e(  2 -  2) =      7.07854  eV     1   --> A_1  D_1  S_1  
     e(  3 -  3) =     10.58029  eV     1   --> A_1  D_1  S_1  
     e(  4 -  4) =     14.53441  eV     1   --> B_2  D_4  S_4  
     e(  5 -  5) =     15.83241  eV     1   --> A_1  D_1  S_1  
     e(  6 -  6) =     20.25177  eV     1   --> A_1  D_1  S_1  
     e(  7 -  7) =     33.86987  eV     1   --> B_2  D_4  S_4  
     e(  8 -  8) =     35.04030  eV     1   --> A_2  D_2  S_2  
     e(  9 -  9) =     35.41577  eV     1   --> B_1  D_3  S_3  
     e( 10 - 10) =     39.99391  eV     1   --> A_1  D_1  S_1  

 **************************************************************************

 **************************************************************************

                    xk=(   1.00000,   0.15000,   0.15000  )

     Band symmetry, C_2v (mm2)  point group:

     e(  1 -  1) =      5.83495  eV     1   --> B_1  D_3  S_3  
     e(  2 -  2) =      7.19801  eV     1   --> A_1  D_1  S_1  
     e(  3 -  3) =      9.89475  eV     1   --> A_1  D_1  S_1  
     e(  4 -  4) =     14.64205  eV     1   --> B_2  D_4  S_4  
     e(  5 -  5) =     16.04455  eV     1   --> A_1  D_1  S_1  
     e(  6 -  6) =     21.04928  eV     1   --> A_1  D_1  S_1  
     e(  7 -  7) =     33.32671  eV     1   --> B_2  D_4  S_4  
     e(  8 -  8) =     34.37093  eV     1   --> A_2  D_2  S_2  
     e(  9 -  9) =     34.83781  eV     1   --> B_1  D_3  S_3  
     e( 10 - 10) =     39.42706  eV     1   --> A_1  D_1  S_1  

 **************************************************************************

 **************************************************************************

                    xk=(   1.00000,   0.17500,   0.17500  )

     Band symmetry, C_2v (mm2)  point group:

     e(  1 -  1) =      5.97133  eV     1   --> B_1  D_3  S_3  
     e(  2 -  2) =      7.32663  eV     1   --> A_1  D_1  S_1  
     e(  3 -  3) =      9.22612  eV     1   --> A_1  D_1  S_1  
     e(  4 -  4) =     14.76881  eV     1   --> B_2  D_4  S_4  
     e(  5 -  5) =     16.25171  eV     1   --> A_1  D_1  S_1  
     e(  6 -  6) =     21.89690  eV     1   --> A_1  D_1  S_1  
     e(  7 -  7) =     32.76906  eV     1   --> B_2  D_4  S_4  
     e(  8 -  8) =     33.69422  eV     1   --> A_2  D_2  S_2  
     e(  9 -  9) =     34.25000  eV     1   --> B_1  D_3  S_3  
     e( 10 - 10) =     38.84783  eV     1   --> A_1  D_1  S_1  

 **************************************************************************

 **************************************************************************

                    xk=(   1.00000,   0.20000,   0.20000  )

     Band symmetry, C_2v (mm2)  point group:

     e(  1 -  1) =      6.12880  eV     1   --> B_1  D_3  S_3  
     e(  2 -  2) =      7.44184  eV     1   --> A_1  D_1  S_1  
     e(  3 -  3) =      8.60440  eV     1   --> A_1  D_1  S_1  
     e(  4 -  4) =     14.91524  eV     1   --> B_2  D_4  S_4  
     e(  5 -  5) =     16.46437  eV     1   --> A_1  D_1  S_1  
     e(  6 -  6) =     22.78087  eV     1   --> A_1  D_1  S_1  
     e(  7 -  7) =     32.21051  eV     1   --> B_2  D_4  S_4  
     e(  8 -  8) =     33.01894  eV     1   --> A_2  D_2  S_2  
     e(  9 -  9) =     33.66308  eV     1   --> B_1  D_3  S_3  
     e( 10 - 10) =     38.26693  eV     1   --> A_1  D_1  S_1  

 **************************************************************************

 **************************************************************************

                    xk=(   1.00000,   0.22500,   0.22500  )

     Band symmetry, C_2v (mm2)  point group:

     e(  1 -  1) =      6.30742  eV     1   --> B_1  D_3  S_3  
     e(  2 -  2) =      7.41168  eV     1   --> A_1  D_1  S_1  
     e(  3 -  3) =      8.16354  eV     1   --> A_1  D_1  S_1  
     e(  4 -  4) =     15.08140  eV     1   --> B_2  D_4  S_4  
     e(  5 -  5) =     16.68809  eV     1   --> A_1  D_1  S_1  
     e(  6 -  6) =     23.69126  eV     1   --> A_1  D_1  S_1  
     e(  7 -  7) =     31.65749  eV     1   --> B_2  D_4  S_4  
     e(  8 -  8) =     32.35073  eV     1   --> A_2  D_2  S_2  
     e(  9 -  9) =     33.08281  eV     1   --> B_1  D_3  S_3  
     e( 10 - 10) =     37.69105  eV     1   --> A_1  D_1  S_1  

 **************************************************************************

 **************************************************************************

                    xk=(   1.00000,   0.25000,   0.25000  )

     Band symmetry, C_2v (mm2)  point group:

     e(  1 -  1) =      6.50723  eV     1   --> B_1  D_3  S_3  
     e(  2 -  2) =      7.00118  eV     1   --> A_1  D_1  S_1  
     e(  3 -  3) =      8.13986  eV     1   --> A_1  D_1  S_1  
     e(  4 -  4) =     15.26735  eV     1   --> B_2  D_4  S_4  
     e(  5 -  5) =     16.92617  eV     1   --> A_1  D_1  S_1  
     e(  6 -  6) =     24.62003  eV     1   --> A_1  D_1  S_1  
     e(  7 -  7) =     31.11435  eV     1   --> B_2  D_4  S_4  
     e(  8 -  8) =     31.69342  eV     1   --> A_2  D_2  S_2  
     e(  9 -  9) =     32.51305  eV     1   --> B_1  D_3  S_3  
     e( 10 - 10) =     37.12596  eV     1   --> A_1  D_1  S_1  

 **************************************************************************

 **************************************************************************

                    xk=(   0.96667,   0.24167,   0.24167  )

     point group C_s (m)    
     there are  2 classes
     the character table:

       E     s    
A'     1.00  1.00
A''    1.00 -1.00

     the symmetry operations in each class and the name of the first element:

     E        1
                                                                 
     s        2
                                                                 

     Band symmetry, C_s (m)     point group:

     e(  1 -  1) =      6.22785  eV     1   --> A'             
     e(  2 -  2) =      7.24065  eV     1   --> A'             
     e(  3 -  3) =      8.27833  eV     1   --> A'             
     e(  4 -  4) =     15.21179  eV     1   --> A''            
     e(  5 -  5) =     16.85498  eV     1   --> A'             
     e(  6 -  6) =     24.31661  eV     1   --> A'             
     e(  7 -  7) =     30.99146  eV     1   --> A''            
     e(  8 -  8) =     32.22542  eV     1   --> A''            
     e(  9 -  9) =     32.65627  eV     1   --> A'             
     e( 10 - 10) =     37.32065  eV     1   --> A'             

 **************************************************************************

 **************************************************************************

                    xk=(   0.93333,   0.23333,   0.23333  )

     Band symmetry, C_s (m)     point group:

     e(  1 -  1) =      5.73581  eV     1   --> A'             
     e(  2 -  2) =      7.52268  eV     1   --> A'             
     e(  3 -  3) =      8.64728  eV     1   --> A'             
     e(  4 -  4) =     15.17568  eV     1   --> A''            
     e(  5 -  5) =     16.80544  eV     1   --> A'             
     e(  6 -  6) =     24.03059  eV     1   --> A'             
     e(  7 -  7) =     30.71250  eV     1   --> A''            
     e(  8 -  8) =     32.71399  eV     1   --> A'             
     e(  9 -  9) =     32.93610  eV     1   --> A''            
     e( 10 - 10) =     37.51028  eV     1   --> A'             

 **************************************************************************

 **************************************************************************

                    xk=(   0.90000,   0.22500,   0.22500  )

     Band symmetry, C_s (m)     point group:

     e(  1 -  1) =      5.18764  eV     1   --> A'             
     e(  2 -  2) =      7.81495  eV     1   --> A'             
     e(  3 -  3) =      9.12235  eV     1   --> A'             
     e(  4 -  4) =     15.15900  eV     1   --> A''            
     e(  5 -  5) =     16.77756  eV     1   --> A'             
     e(  6 -  6) =     23.76273  eV     1   --> A'             
     e(  7 -  7) =     30.42996  eV     1   --> A''            
     e(  8 -  8) =     32.69854  eV     1   --> A'             
     e(  9 -  9) =     33.66469  eV     1   --> A''            
     e( 10 - 10) =     37.61358  eV     1   --> A'             

 **************************************************************************

 **************************************************************************

                    xk=(   0.86667,   0.21667,   0.21667  )

     Band symmetry, C_s (m)     point group:

     e(  1 -  1) =      4.62983  eV     1   --> A'             
     e(  2 -  2) =      8.11986  eV     1   --> A'             
     e(  3 -  3) =      9.65604  eV     1   --> A'             
     e(  4 -  4) =     15.16252  eV     1   --> A''            
     e(  5 -  5) =     16.77138  eV     1   --> A'             
     e(  6 -  6) =     23.51437  eV     1   --> A'             
     e(  7 -  7) =     30.16294  eV     1   --> A''            
     e(  8 -  8) =     32.62619  eV     1   --> A'             
     e(  9 -  9) =     34.38194  eV     1   --> A''            
     e( 10 - 10) =     37.50976  eV     1   --> A'             

 **************************************************************************

 **************************************************************************

                    xk=(   0.83333,   0.20833,   0.20833  )

     Band symmetry, C_s (m)     point group:

     e(  1 -  1) =      4.07733  eV     1   --> A'             
     e(  2 -  2) =      8.43943  eV     1   --> A'             
     e(  3 -  3) =     10.22631  eV     1   --> A'             
     e(  4 -  4) =     15.18301  eV     1   --> A''            
     e(  5 -  5) =     16.78624  eV     1   --> A'             
     e(  6 -  6) =     23.28429  eV     1   --> A'             
     e(  7 -  7) =     29.90346  eV     1   --> A''            
     e(  8 -  8) =     32.51065  eV     1   --> A'             
     e(  9 -  9) =     35.05690  eV     1   --> A''            
     e( 10 - 10) =     37.15348  eV     1   --> A'             

 **************************************************************************

 **************************************************************************

                    xk=(   0.80000,   0.20000,   0.20000  )

     Band symmetry, C_s (m)     point group:

     e(  1 -  1) =      3.53828  eV     1   --> A'             
     e(  2 -  2) =      8.77781  eV     1   --> A'             
     e(  3 -  3) =     10.82599  eV     1   --> A'             
     e(  4 -  4) =     15.22445  eV     1   --> A''            
     e(  5 -  5) =     16.82260  eV     1   --> A'             
     e(  6 -  6) =     23.07378  eV     1   --> A'             
     e(  7 -  7) =     29.66623  eV     1   --> A''            
     e(  8 -  8) =     32.36637  eV     1   --> A'             
     e(  9 -  9) =     35.64762  eV     1   --> A''            
     e( 10 - 10) =     36.62504  eV     1   --> A'             

 **************************************************************************

 **************************************************************************

                    xk=(   0.76667,   0.19167,   0.19167  )

     Band symmetry, C_s (m)     point group:

     e(  1 -  1) =      3.01515  eV     1   --> A'             
     e(  2 -  2) =      9.13489  eV     1   --> A'             
     e(  3 -  3) =     11.45071  eV     1   --> A'             
     e(  4 -  4) =     15.28531  eV     1   --> A''            
     e(  5 -  5) =     16.87990  eV     1   --> A'             
     e(  6 -  6) =     22.88308  eV     1   --> A'             
     e(  7 -  7) =     29.44680  eV     1   --> A''            
     e(  8 -  8) =     32.19904  eV     1   --> A'             
     e(  9 -  9) =     36.01839  eV     1   --> A'             
     e( 10 - 10) =     36.08213  eV     1   --> A''            

 **************************************************************************

 **************************************************************************

                    xk=(   0.73333,   0.18333,   0.18333  )

     Band symmetry, C_s (m)     point group:

     e(  1 -  1) =      2.50839  eV     1   --> A'             
     e(  2 -  2) =      9.51001  eV     1   --> A'             
     e(  3 -  3) =     12.09687  eV     1   --> A'             
     e(  4 -  4) =     15.36514  eV     1   --> A''            
     e(  5 -  5) =     16.95728  eV     1   --> A'             
     e(  6 -  6) =     22.71193  eV     1   --> A'             
     e(  7 -  7) =     29.24426  eV     1   --> A''            
     e(  8 -  8) =     32.00962  eV     1   --> A'             
     e(  9 -  9) =     35.38277  eV     1   --> A'             
     e( 10 - 10) =     36.27150  eV     1   --> A''            

 **************************************************************************

 **************************************************************************

                    xk=(   0.70000,   0.17500,   0.17500  )

     Band symmetry, C_s (m)     point group:

     e(  1 -  1) =      2.02184  eV     1   --> A'             
     e(  2 -  2) =      9.90557  eV     1   --> A'             
     e(  3 -  3) =     12.76501  eV     1   --> A'             
     e(  4 -  4) =     15.46490  eV     1   --> A''            
     e(  5 -  5) =     17.05541  eV     1   --> A'             
     e(  6 -  6) =     22.56145  eV     1   --> A'             
     e(  7 -  7) =     29.06064  eV     1   --> A''            
     e(  8 -  8) =     31.80020  eV     1   --> A'             
     e(  9 -  9) =     34.76583  eV     1   --> A'             
     e( 10 - 10) =     36.16432  eV     1   --> A''            

 **************************************************************************

 **************************************************************************

                    xk=(   0.66667,   0.16667,   0.16667  )

     Band symmetry, C_s (m)     point group:

     e(  1 -  1) =      1.55430  eV     1   --> A'             
     e(  2 -  2) =     10.31925  eV     1   --> A'             
     e(  3 -  3) =     13.45270  eV     1   --> A'             
     e(  4 -  4) =     15.58394  eV     1   --> A''            
     e(  5 -  5) =     17.17247  eV     1   --> A'             
     e(  6 -  6) =     22.43128  eV     1   --> A'             
     e(  7 -  7) =     28.89382  eV     1   --> A''            
     e(  8 -  8) =     31.56251  eV     1   --> A'             
     e(  9 -  9) =     34.18290  eV     1   --> A'             
     e( 10 - 10) =     35.79446  eV     1   --> A''            

 **************************************************************************

 **************************************************************************

                    xk=(   0.63333,   0.15833,   0.15833  )

     Band symmetry, C_s (m)     point group:

     e(  1 -  1) =      1.10772  eV     1   --> A'             
     e(  2 -  2) =     10.75352  eV     1   --> A'             
     e(  3 -  3) =     14.15962  eV     1   --> A'             
     e(  4 -  4) =     15.72272  eV     1   --> A''            
     e(  5 -  5) =     17.30979  eV     1   --> A'             
     e(  6 -  6) =     22.32159  eV     1   --> A'             
     e(  7 -  7) =     28.74503  eV     1   --> A''            
     e(  8 -  8) =     31.28566  eV     1   --> A'             
     e(  9 -  9) =     33.65457  eV     1   --> A'             
     e( 10 - 10) =     35.24979  eV     1   --> A''            

 **************************************************************************

 **************************************************************************

                    xk=(   0.60000,   0.15000,   0.15000  )

     Band symmetry, C_s (m)     point group:

     e(  1 -  1) =      0.68075  eV     1   --> A'             
     e(  2 -  2) =     11.20578  eV     1   --> A'             
     e(  3 -  3) =     14.88516  eV     1   --> A'             
     e(  4 -  4) =     15.87933  eV     1   --> A''            
     e(  5 -  5) =     17.46621  eV     1   --> A'             
     e(  6 -  6) =     22.23321  eV     1   --> A'             
     e(  7 -  7) =     28.61615  eV     1   --> A''            
     e(  8 -  8) =     30.95712  eV     1   --> A'             
     e(  9 -  9) =     33.19864  eV     1   --> A'             
     e( 10 - 10) =     34.60145  eV     1   --> A''            

 **************************************************************************

 **************************************************************************

                    xk=(   0.56667,   0.14167,   0.14167  )

     Band symmetry, C_s (m)     point group:

     e(  1 -  1) =      0.27603  eV     1   --> A'             
     e(  2 -  2) =     11.67838  eV     1   --> A'             
     e(  3 -  3) =     15.62641  eV     1   --> A'             
     e(  4 -  4) =     16.05706  eV     1   --> A''            
     e(  5 -  5) =     17.64198  eV     1   --> A'             
     e(  6 -  6) =     22.16443  eV     1   --> A'             
     e(  7 -  7) =     28.49955  eV     1   --> A''            
     e(  8 -  8) =     30.56990  eV     1   --> A'             
     e(  9 -  9) =     32.82561  eV     1   --> A'             
     e( 10 - 10) =     33.90197  eV     1   --> A''            

 **************************************************************************

 **************************************************************************

                    xk=(   0.53333,   0.13333,   0.13333  )

     Band symmetry, C_s (m)     point group:

     e(  1 -  1) =     -0.10719  eV     1   --> A'             
     e(  2 -  2) =     12.16997  eV     1   --> A'             
     e(  3 -  3) =     16.25438  eV     1   --> A''            
     e(  4 -  4) =     16.38115  eV     1   --> A'             
     e(  5 -  5) =     17.83869  eV     1   --> A'             
     e(  6 -  6) =     22.11603  eV     1   --> A'             
     e(  7 -  7) =     28.39717  eV     1   --> A''            
     e(  8 -  8) =     30.12848  eV     1   --> A'             
     e(  9 -  9) =     32.53256  eV     1   --> A'             
     e( 10 - 10) =     33.17770  eV     1   --> A''            

 **************************************************************************

 **************************************************************************

                    xk=(   0.50000,   0.12500,   0.12500  )

     Band symmetry, C_s (m)     point group:

     e(  1 -  1) =     -0.46860  eV     1   --> A'             
     e(  2 -  2) =     12.68042  eV     1   --> A'             
     e(  3 -  3) =     16.47130  eV     1   --> A''            
     e(  4 -  4) =     17.14054  eV     1   --> A'             
     e(  5 -  5) =     18.06592  eV     1   --> A'             
     e(  6 -  6) =     22.08988  eV     1   --> A'             
     e(  7 -  7) =     28.30677  eV     1   --> A''            
     e(  8 -  8) =     29.65053  eV     1   --> A'             
     e(  9 -  9) =     32.30696  eV     1   --> A'             
     e( 10 - 10) =     32.44678  eV     1   --> A''            

 **************************************************************************

 **************************************************************************

                    xk=(   0.46667,   0.11667,   0.11667  )

     Band symmetry, C_s (m)     point group:

     e(  1 -  1) =     -0.80867  eV     1   --> A'             
     e(  2 -  2) =     13.20974  eV     1   --> A'             
     e(  3 -  3) =     16.70604  eV     1   --> A''            
     e(  4 -  4) =     17.85721  eV     1   --> A'             
     e(  5 -  5) =     18.36533  eV     1   --> A'             
     e(  6 -  6) =     22.08537  eV     1   --> A'             
     e(  7 -  7) =     28.22504  eV     1   --> A''            
     e(  8 -  8) =     29.14316  eV     1   --> A'             
     e(  9 -  9) =     31.71744  eV     1   --> A''            
     e( 10 - 10) =     32.13079  eV     1   --> A'             

 **************************************************************************

 **************************************************************************

                    xk=(   0.43333,   0.10833,   0.10833  )

     Band symmetry, C_s (m)     point group:

     e(  1 -  1) =     -1.12572  eV     1   --> A'             
     e(  2 -  2) =     13.75693  eV     1   --> A'             
     e(  3 -  3) =     16.96195  eV     1   --> A''            
     e(  4 -  4) =     18.34034  eV     1   --> A'             
     e(  5 -  5) =     18.92656  eV     1   --> A'             
     e(  6 -  6) =     22.09682  eV     1   --> A'             
     e(  7 -  7) =     28.14427  eV     1   --> A''            
     e(  8 -  8) =     28.62733  eV     1   --> A'             
     e(  9 -  9) =     31.01222  eV     1   --> A''            
     e( 10 - 10) =     31.98837  eV     1   --> A'             

 **************************************************************************

 **************************************************************************

                    xk=(   0.40000,   0.10000,   0.10000  )

     Band symmetry, C_s (m)     point group:

     e(  1 -  1) =     -1.42097  eV     1   --> A'             
     e(  2 -  2) =     14.32103  eV     1   --> A'             
     e(  3 -  3) =     17.23687  eV     1   --> A''            
     e(  4 -  4) =     18.63920  eV     1   --> A'             
     e(  5 -  5) =     19.69872  eV     1   --> A'             
     e(  6 -  6) =     22.12914  eV     1   --> A'             
     e(  7 -  7) =     28.05134  eV     1   --> A''            
     e(  8 -  8) =     28.10950  eV     1   --> A'             
     e(  9 -  9) =     30.34200  eV     1   --> A''            
     e( 10 - 10) =     31.86799  eV     1   --> A'             

 **************************************************************************

 **************************************************************************

                    xk=(   0.36667,   0.09167,   0.09167  )

     Band symmetry, C_s (m)     point group:

     e(  1 -  1) =     -1.69342  eV     1   --> A'             
     e(  2 -  2) =     14.90268  eV     1   --> A'             
     e(  3 -  3) =     17.53004  eV     1   --> A''            
     e(  4 -  4) =     18.90805  eV     1   --> A'             
     e(  5 -  5) =     20.52197  eV     1   --> A'             
     e(  6 -  6) =     22.18078  eV     1   --> A'             
     e(  7 -  7) =     27.59743  eV     1   --> A'             
     e(  8 -  8) =     27.91785  eV     1   --> A''            
     e(  9 -  9) =     29.73586  eV     1   --> A''            
     e( 10 - 10) =     31.75028  eV     1   --> A'             

 **************************************************************************

 **************************************************************************

                    xk=(   0.33333,   0.08333,   0.08333  )

     Band symmetry, C_s (m)     point group:

     e(  1 -  1) =     -1.94289  eV     1   --> A'             
     e(  2 -  2) =     15.50193  eV     1   --> A'             
     e(  3 -  3) =     17.84331  eV     1   --> A''            
     e(  4 -  4) =     19.17603  eV     1   --> A'             
     e(  5 -  5) =     21.35198  eV     1   --> A'             
     e(  6 -  6) =     22.26325  eV     1   --> A'             
     e(  7 -  7) =     27.09486  eV     1   --> A'             
     e(  8 -  8) =     27.69373  eV     1   --> A''            
     e(  9 -  9) =     29.25171  eV     1   --> A''            
     e( 10 - 10) =     31.57744  eV     1   --> A'             

 **************************************************************************

 **************************************************************************

                    xk=(   0.30000,   0.07500,   0.07500  )

     Band symmetry, C_s (m)     point group:

     e(  1 -  1) =     -2.16850  eV     1   --> A'             
     e(  2 -  2) =     16.11878  eV     1   --> A'             
     e(  3 -  3) =     18.17637  eV     1   --> A''            
     e(  4 -  4) =     19.44786  eV     1   --> A'             
     e(  5 -  5) =     22.07472  eV     1   --> A'             
     e(  6 -  6) =     22.48647  eV     1   --> A'             
     e(  7 -  7) =     26.60458  eV     1   --> A'             
     e(  8 -  8) =     27.32920  eV     1   --> A''            
     e(  9 -  9) =     28.94122  eV     1   --> A''            
     e( 10 - 10) =     31.07655  eV     1   --> A'             

 **************************************************************************

 **************************************************************************

                    xk=(   0.26667,   0.06667,   0.06667  )

     Band symmetry, C_s (m)     point group:

     e(  1 -  1) =     -2.37152  eV     1   --> A'             
     e(  2 -  2) =     16.74909  eV     1   --> A'             
     e(  3 -  3) =     18.52722  eV     1   --> A''            
     e(  4 -  4) =     19.72253  eV     1   --> A'             
     e(  5 -  5) =     22.31976  eV     1   --> A'             
     e(  6 -  6) =     23.20605  eV     1   --> A'             
     e(  7 -  7) =     26.12635  eV     1   --> A'             
     e(  8 -  8) =     26.83444  eV     1   --> A''            
     e(  9 -  9) =     28.78316  eV     1   --> A''            
     e( 10 - 10) =     30.26985  eV     1   --> A'             

 **************************************************************************

 **************************************************************************

                    xk=(   0.23333,   0.05833,   0.05833  )

     Band symmetry, C_s (m)     point group:

     e(  1 -  1) =     -2.55045  eV     1   --> A'             
     e(  2 -  2) =     17.39362  eV     1   --> A'             
     e(  3 -  3) =     18.89675  eV     1   --> A''            
     e(  4 -  4) =     20.00080  eV     1   --> A'             
     e(  5 -  5) =     22.43623  eV     1   --> A'             
     e(  6 -  6) =     24.07143  eV     1   --> A'             
     e(  7 -  7) =     25.66348  eV     1   --> A'             
     e(  8 -  8) =     26.27309  eV     1   --> A''            
     e(  9 -  9) =     28.72001  eV     1   --> A''            
     e( 10 - 10) =     29.42284  eV     1   --> A'             

 **************************************************************************

 **************************************************************************

                    xk=(   0.20000,   0.05000,   0.05000  )

     Band symmetry, C_s (m)     point group:

     e(  1 -  1) =     -2.70574  eV     1   --> A'             
     e(  2 -  2) =     18.04975  eV     1   --> A'             
     e(  3 -  3) =     19.28349  eV     1   --> A''            
     e(  4 -  4) =     20.27824  eV     1   --> A'             
     e(  5 -  5) =     22.53970  eV     1   --> A'             
     e(  6 -  6) =     24.94766  eV     1   --> A'             
     e(  7 -  7) =     25.22365  eV     1   --> A'             
     e(  8 -  8) =     25.68961  eV     1   --> A''            
     e(  9 -  9) =     28.58909  eV     1   --> A'             
     e( 10 - 10) =     28.70712  eV     1   --> A''            

 **************************************************************************

 **************************************************************************

                    xk=(   0.16667,   0.04167,   0.04167  )

     Band symmetry, C_s (m)     point group:

     e(  1 -  1) =     -2.83732  eV     1   --> A'             
     e(  2 -  2) =     18.71437  eV     1   --> A'             
     e(  3 -  3) =     19.68567  eV     1   --> A''            
     e(  4 -  4) =     20.54978  eV     1   --> A'             
     e(  5 -  5) =     22.64035  eV     1   --> A'             
     e(  6 -  6) =     24.77438  eV     1   --> A'             
     e(  7 -  7) =     25.10889  eV     1   --> A''            
     e(  8 -  8) =     25.83522  eV     1   --> A'             
     e(  9 -  9) =     27.78739  eV     1   --> A'             
     e( 10 - 10) =     28.71837  eV     1   --> A''            

 **************************************************************************

 **************************************************************************

                    xk=(   0.13333,   0.03333,   0.03333  )

     Band symmetry, C_s (m)     point group:

     e(  1 -  1) =     -2.94515  eV     1   --> A'             
     e(  2 -  2) =     19.38036  eV     1   --> A'             
     e(  3 -  3) =     20.09983  eV     1   --> A''            
     e(  4 -  4) =     20.81016  eV     1   --> A'             
     e(  5 -  5) =     22.73103  eV     1   --> A'             
     e(  6 -  6) =     24.34753  eV     1   --> A'             
     e(  7 -  7) =     24.53906  eV     1   --> A''            
     e(  8 -  8) =     26.68620  eV     1   --> A'             
     e(  9 -  9) =     27.03835  eV     1   --> A'             
     e( 10 - 10) =     28.74163  eV     1   --> A''            

 **************************************************************************

 **************************************************************************

                    xk=(   0.10000,   0.02500,   0.02500  )

     Band symmetry, C_s (m)     point group:

     e(  1 -  1) =     -3.02913  eV     1   --> A'             
     e(  2 -  2) =     20.03708  eV     1   --> A'             
     e(  3 -  3) =     20.51931  eV     1   --> A''            
     e(  4 -  4) =     21.04834  eV     1   --> A'             
     e(  5 -  5) =     22.80785  eV     1   --> A'             
     e(  6 -  6) =     23.92256  eV     1   --> A'             
     e(  7 -  7) =     23.99518  eV     1   --> A''            
     e(  8 -  8) =     26.36990  eV     1   --> A'             
     e(  9 -  9) =     27.48146  eV     1   --> A'             
     e( 10 - 10) =     28.76834  eV     1   --> A''            

 **************************************************************************

 **************************************************************************

                    xk=(   0.06667,   0.01667,   0.01667  )

     Band symmetry, C_s (m)     point group:

     e(  1 -  1) =     -3.08916  eV     1   --> A'             
     e(  2 -  2) =     20.66112  eV     1   --> A'             
     e(  3 -  3) =     20.92748  eV     1   --> A''            
     e(  4 -  4) =     21.24780  eV     1   --> A'             
     e(  5 -  5) =     22.86696  eV     1   --> A'             
     e(  6 -  6) =     23.49669  eV     1   --> A''            
     e(  7 -  7) =     23.50034  eV     1   --> A'             
     e(  8 -  8) =     25.82636  eV     1   --> A'             
     e(  9 -  9) =     28.16299  eV     1   --> A'             
     e( 10 - 10) =     28.79217  eV     1   --> A''            

 **************************************************************************

 **************************************************************************

                    xk=(   0.03333,   0.00833,   0.00833  )

     Band symmetry, C_s (m)     point group:

     e(  1 -  1) =     -3.12519  eV     1   --> A'             
     e(  2 -  2) =     21.18979  eV     1   --> A'             
     e(  3 -  3) =     21.27640  eV     1   --> A''            
     e(  4 -  4) =     21.38477  eV     1   --> A'             
     e(  5 -  5) =     22.90418  eV     1   --> A'             
     e(  6 -  6) =     23.09306  eV     1   --> A''            
     e(  7 -  7) =     23.11134  eV     1   --> A'             
     e(  8 -  8) =     25.46421  eV     1   --> A'             
     e(  9 -  9) =     28.64043  eV     1   --> A'             
     e( 10 - 10) =     28.80846  eV     1   --> A''            

 **************************************************************************

 **************************************************************************

                    xk=(   0.00000,   0.00000,   0.00000  )

     point group O_h (m-3m) 
     there are 10 classes
     the character table:

       E     8C3   3C2   6C4   6C2'  i     8S6   3s_h  6S4   6s_d 
A_1g   1.00  1.00  1.00  1.00  1.00  1.00  1.00  1.00  1.00  1.00
A_2g   1.00  1.00  1.00 -1.00 -1.00  1.00  1.00  1.00 -1.00 -1.00
E_g    2.00 -1.00  2.00  0.00  0.00  2.00 -1.00  2.00  0.00  0.00
T_1g   3.00  0.00 -1.00  1.00 -1.00  3.00  0.00 -1.00  1.00 -1.00
T_2g   3.00  0.00 -1.00 -1.00  1.00  3.00  0.00 -1.00 -1.00  1.00
A_1u   1.00  1.00  1.00  1.00  1.00 -1.00 -1.00 -1.00 -1.00 -1.00
A_2u   1.00  1.00  1.00 -1.00 -1.00 -1.00 -1.00 -1.00  1.00  1.00
E_u    2.00 -1.00  2.00  0.00  0.00 -2.00  1.00 -2.00  0.00  0.00
T_1u   3.00  0.00 -1.00  1.00 -1.00 -3.00  0.00  1.00 -1.00  1.00
T_2u   3.00  0.00 -1.00 -1.00  1.00 -3.00  0.00  1.00  1.00 -1.00

     the symmetry operations in each class and the name of the first element:

     E        1
                                                                 
     8C3     17   19   20   18   24   21   22   23
                                                                 
     3C2      2    4    3
                                                                 
     6C4      7    8   15   16   12   11
                                                                 
     6C2'     5    6   14   13   10    9
                                                                 
     i       25
                                                                 
     8S6     41   43   44   42   48   45   46   47
                                                                 
     3s_h    26   28   27
                                                                 
     6S4     31   32   39   40   36   35
                                                                 
     6s_d    29   30   38   37   34   33
                                                                 

     Band symmetry, O_h (m-3m)  point group:

     e(  1 -  1) =     -3.13721  eV     1   --> A_1g G_1   G_1+
     e(  2 -  4) =     21.43426  eV     3   --> T_2g G_25' G_5+
     e(  5 -  7) =     22.91688  eV     3   --> T_1u G_15  G_4-
     e(  8 -  8) =     25.33621  eV     1   --> A_2u G_2'  G_2-
     e(  9 - 10) =     28.81423  eV     2   --> E_g  G_12  G_3+

 **************************************************************************

     BANDS        :      0.43s CPU      0.45s WALL


   This run was terminated on:  23:13: 3   6Jun2023            

=------------------------------------------------------------------------------=
   JOB DONE.
=------------------------------------------------------------------------------=
