
     Program PHONON v.7.2 starts on 30May2023 at 11:25:20 

     This program is part of the open-source Quantum ESPRESSO suite
     for quantum simulation of materials; please cite
         "P. Giannozzi et al., J. Phys.:Condens. Matter 21 395502 (2009);
         "P. Giannozzi et al., J. Phys.:Condens. Matter 29 465901 (2017);
         "P. Giannozzi et al., J. Chem. Phys. 152 154105 (2020);
          URL http://www.quantum-espresso.org", 
     in publications or presentations arising from this work. More details at
     http://www.quantum-espresso.org/quote

     Parallel version (MPI), running on     4 processors

     MPI processes distributed on     1 nodes
     1019 MiB available memory on the printing compute node when the environment starts

     Reading input from Si.ph.in

     Reading xml data from directory:

     ./tmp/Si.save/

     R & G space division:  proc/nbgrp/npool/nimage =       4
     Subspace diagonalization in iterative solution of the eigenvalue problem:
     a serial algorithm will be used


     IMPORTANT: XC functional enforced from input :
     Exchange-correlation= PZ
                           (   1   1   0   0   0   0   0)
     Any further DFT definition will be discarded
     Please, verify this is what you really want


     Parallelization info
     --------------------
     sticks:   dense  smooth     PW     G-vecs:    dense   smooth      PW
     Min          63      63     21                  682      682     132
     Max          64      64     22                  686      686     135
     Sum         253     253     85                 2733     2733     531

     Using Slab Decomposition

     Reading collected, re-writing distributed wavefunctions in ./tmp/


     Dynamical matrices for ( 4, 4, 4)  uniform grid of q-points
     (   8 q-points):
       N         xq(1)         xq(2)         xq(3) 
       1   0.000000000   0.000000000   0.000000000
       2  -0.250000000   0.250000000  -0.250000000
       3   0.500000000  -0.500000000   0.500000000
       4   0.000000000   0.500000000   0.000000000
       5   0.750000000  -0.250000000   0.750000000
       6   0.500000000   0.000000000   0.500000000
       7   0.000000000  -1.000000000   0.000000000
       8  -0.500000000  -1.000000000   0.000000000

     Calculation of q =    0.0000000   0.0000000   0.0000000

     Phonons on a uniform q-grid                                                

     bravais-lattice index     =            2
     lattice parameter (alat)  =      10.2000  a.u.
     unit-cell volume          =     265.3020 (a.u.)^3
     number of atoms/cell      =            2
     number of atomic types    =            1
     kinetic-energy cut-off    =      18.0000  Ry
     charge density cut-off    =      72.0000  Ry
     convergence threshold     =      1.0E-14
     beta                      =       0.7000
     number of iterations used =            4
     Exchange-correlation= PZ
                           (   1   1   0   0   0   0   0)


     celldm(1)=   10.20000  celldm(2)=    0.00000  celldm(3)=    0.00000
     celldm(4)=    0.00000  celldm(5)=    0.00000  celldm(6)=    0.00000

     crystal axes: (cart. coord. in units of alat)
               a(1) = ( -0.5000  0.0000  0.5000 )  
               a(2) = (  0.0000  0.5000  0.5000 )  
               a(3) = ( -0.5000  0.5000  0.0000 )  

     reciprocal axes: (cart. coord. in units 2 pi/alat)
               b(1) = ( -1.0000 -1.0000  1.0000 )  
               b(2) = (  1.0000  1.0000  1.0000 )  
               b(3) = ( -1.0000  1.0000 -1.0000 )  


     Atoms inside the unit cell: 

     Cartesian axes

     site n.  atom      mass           positions (alat units)
        1     Si  28.0855   tau(    1) = (    0.00000    0.00000    0.00000  )
        2     Si  28.0855   tau(    2) = (    0.25000    0.25000    0.25000  )

     Computing dynamical matrix for 
                    q = (   0.0000000   0.0000000   0.0000000 )

     49 Sym.Ops. (with q -> -q+G )


     G cutoff =  189.7462  (    683 G-vectors)     FFT grid: ( 20, 20, 20)
     number of k points=    10

     PseudoPot. # 1 for Si read from file:
     ../../pseudo/Si.vbc.UPF
     MD5 check sum: bcd8ae23180a2f07cc8655fe7dcd9644
     Pseudo is Norm-conserving, Zval =  4.0
     Generated by new atomic code, or converted to UPF format
     Using radial grid of  431 points,  2 beta functions with: 
                l(1) =   0
                l(2) =   1

     Mode symmetry, O_h (m-3m)  point group:


     Electric field:
     Dielectric constant
     Born effective charges in two ways 


     Atomic displacements:
     There are    2 irreducible representations

     Representation     1      3 modes -  To be done

     Representation     2      3 modes -  To be done



     Alpha used in Ewald sum =   0.7000
     PHONON       :      0.20s CPU      0.21s WALL


     Electric Fields Calculation

      iter #   1 total cpu time :     0.4 secs   av.it.:   5.5
      thresh= 1.000E-02 alpha_mix =  0.700 |ddv_scf|^2 =  8.877E-07

      iter #   2 total cpu time :     0.5 secs   av.it.:   9.3
      thresh= 9.422E-05 alpha_mix =  0.700 |ddv_scf|^2 =  3.367E-08

      iter #   3 total cpu time :     0.5 secs   av.it.:   9.2
      thresh= 1.835E-05 alpha_mix =  0.700 |ddv_scf|^2 =  3.540E-10

      iter #   4 total cpu time :     0.6 secs   av.it.:   9.3
      thresh= 1.881E-06 alpha_mix =  0.700 |ddv_scf|^2 =  1.515E-12

      iter #   5 total cpu time :     0.7 secs   av.it.:   9.0
      thresh= 1.231E-07 alpha_mix =  0.700 |ddv_scf|^2 =  1.898E-15

     End of electric fields calculation

          Dielectric constant in cartesian axis 

          (      13.806378037      -0.000000000      -0.000000000 )
          (      -0.000000000      13.806378037       0.000000000 )
          (      -0.000000000       0.000000000      13.806378037 )

          Effective charges (d Force / dE) in cartesian axis without acoustic sum rule applied (asr)

           atom      1   Si Mean Z*:       -0.07567
      Ex  (       -0.07567        0.00000        0.00000 )
      Ey  (        0.00000       -0.07567        0.00000 )
      Ez  (        0.00000        0.00000       -0.07567 )
           atom      2   Si Mean Z*:       -0.07567
      Ex  (       -0.07567        0.00000        0.00000 )
      Ey  (       -0.00000       -0.07567       -0.00000 )
      Ez  (        0.00000        0.00000       -0.07567 )

          Effective charges Sum: Mean:       -0.15134
             -0.15134       -0.00000        0.00000
              0.00000       -0.15134        0.00000
              0.00000       -0.00000       -0.15134

          Effective charges (d Force / dE) in cartesian axis with asr applied: 
           atom      1   Si Mean Z*:        0.00000
      E*x (        0.00000        0.00000        0.00000 )
      E*y (        0.00000        0.00000        0.00000 )
      E*z (        0.00000        0.00000        0.00000 )
           atom      2   Si Mean Z*:       -0.00000
      E*x (       -0.00000       -0.00000       -0.00000 )
      E*y (       -0.00000       -0.00000       -0.00000 )
      E*z (       -0.00000        0.00000       -0.00000 )


     Representation #   1 modes #   1   2   3

     Self-consistent Calculation

      iter #   1 total cpu time :     0.8 secs   av.it.:   5.0
      thresh= 1.000E-02 alpha_mix =  0.700 |ddv_scf|^2 =  1.897E-07

      iter #   2 total cpu time :     0.8 secs   av.it.:   9.6
      thresh= 4.355E-05 alpha_mix =  0.700 |ddv_scf|^2 =  3.292E-09

      iter #   3 total cpu time :     0.9 secs   av.it.:   9.6
      thresh= 5.738E-06 alpha_mix =  0.700 |ddv_scf|^2 =  3.326E-11

      iter #   4 total cpu time :     1.0 secs   av.it.:   8.9
      thresh= 5.767E-07 alpha_mix =  0.700 |ddv_scf|^2 =  3.035E-14

      iter #   5 total cpu time :     1.1 secs   av.it.:   9.6
      thresh= 1.742E-08 alpha_mix =  0.700 |ddv_scf|^2 =  3.033E-16

     End of self-consistent calculation

     Convergence has been achieved 


     Representation #   2 modes #   4   5   6

     Self-consistent Calculation

      iter #   1 total cpu time :     1.2 secs   av.it.:   4.9
      thresh= 1.000E-02 alpha_mix =  0.700 |ddv_scf|^2 =  1.332E-07

      iter #   2 total cpu time :     1.3 secs   av.it.:   9.4
      thresh= 3.650E-05 alpha_mix =  0.700 |ddv_scf|^2 =  4.755E-09

      iter #   3 total cpu time :     1.4 secs   av.it.:   9.3
      thresh= 6.896E-06 alpha_mix =  0.700 |ddv_scf|^2 =  4.397E-11

      iter #   4 total cpu time :     1.5 secs   av.it.:   9.0
      thresh= 6.631E-07 alpha_mix =  0.700 |ddv_scf|^2 =  9.877E-14

      iter #   5 total cpu time :     1.6 secs   av.it.:   9.5
      thresh= 3.143E-08 alpha_mix =  0.700 |ddv_scf|^2 =  1.395E-15

     End of self-consistent calculation

     Convergence has been achieved 

     Number of q in the star =    1
     List of q in the star:
          1   0.000000000   0.000000000   0.000000000

          Dielectric constant in cartesian axis 

          (      13.806378037      -0.000000000      -0.000000000 )
          (      -0.000000000      13.806378037       0.000000000 )
          (      -0.000000000       0.000000000      13.806378037 )

          Effective charges (d Force / dE) in cartesian axis without acoustic sum rule applied (asr)

           atom      1   Si Mean Z*:       -0.07567
      Ex  (       -0.07567        0.00000        0.00000 )
      Ey  (        0.00000       -0.07567        0.00000 )
      Ez  (        0.00000        0.00000       -0.07567 )
           atom      2   Si Mean Z*:       -0.07567
      Ex  (       -0.07567        0.00000        0.00000 )
      Ey  (       -0.00000       -0.07567       -0.00000 )
      Ez  (        0.00000        0.00000       -0.07567 )

          Effective charges Sum: Mean:       -0.15134
             -0.15134       -0.00000        0.00000
              0.00000       -0.15134        0.00000
              0.00000       -0.00000       -0.15134

          Effective charges (d Force / dE) in cartesian axis with asr applied: 
           atom      1   Si Mean Z*:        0.00000
      E*x (        0.00000        0.00000        0.00000 )
      E*y (        0.00000        0.00000        0.00000 )
      E*z (        0.00000        0.00000        0.00000 )
           atom      2   Si Mean Z*:       -0.00000
      E*x (       -0.00000       -0.00000       -0.00000 )
      E*y (       -0.00000       -0.00000       -0.00000 )
      E*z (       -0.00000        0.00000       -0.00000 )

          Effective charges (d P / du) in cartesian axis 

           atom      1   Si 
      Px  (       -0.07569       -0.00000       -0.00000 )
      Py  (       -0.00000       -0.07569        0.00000 )
      Pz  (       -0.00000        0.00000       -0.07569 )
           atom      2   Si 
      Px  (       -0.07569       -0.00000       -0.00000 )
      Py  (       -0.00000       -0.07569        0.00000 )
      Pz  (       -0.00000        0.00000       -0.07569 )

     Diagonalizing the dynamical matrix

     q = (    0.000000000   0.000000000   0.000000000 ) 

 **************************************************************************
     freq (    1) =       0.078830 [THz] =       2.629478 [cm-1]
     freq (    2) =       0.078830 [THz] =       2.629478 [cm-1]
     freq (    3) =       0.078830 [THz] =       2.629478 [cm-1]
     freq (    4) =      15.292493 [THz] =     510.102675 [cm-1]
     freq (    5) =      15.292493 [THz] =     510.102675 [cm-1]
     freq (    6) =      15.292493 [THz] =     510.102675 [cm-1]
 **************************************************************************

     Mode symmetry, O_h (m-3m)  point group:

     freq (   1-   3) =          2.6  [cm-1]   --> T_1u G_15  G_4- I  
     freq (   4-   6) =        510.1  [cm-1]   --> T_2g G_25' G_5+ R  

     Calculation of q =   -0.2500000   0.2500000  -0.2500000

     Parallelization info
     --------------------
     sticks:   dense  smooth     PW     G-vecs:    dense   smooth      PW
     Min          63      63     22                  682      682     140
     Max          64      64     23                  686      686     141
     Sum         253     253     91                 2733     2733     561

     Using Slab Decomposition


     Title: 
     Phonons on a uniform q-grid                                                


     bravais-lattice index     =            2
     lattice parameter (alat)  =      10.2000  a.u.
     unit-cell volume          =     265.3020 (a.u.)^3
     number of atoms/cell      =            2
     number of atomic types    =            1
     number of electrons       =         8.00
     number of Kohn-Sham states=            4
     kinetic-energy cutoff     =      18.0000  Ry
     charge density cutoff     =      72.0000  Ry
     Exchange-correlation= PZ
                           (   1   1   0   0   0   0   0)

     celldm(1)=  10.200000  celldm(2)=   0.000000  celldm(3)=   0.000000
     celldm(4)=   0.000000  celldm(5)=   0.000000  celldm(6)=   0.000000

     crystal axes: (cart. coord. in units of alat)
               a(1) = (  -0.500000   0.000000   0.500000 )  
               a(2) = (   0.000000   0.500000   0.500000 )  
               a(3) = (  -0.500000   0.500000   0.000000 )  

     reciprocal axes: (cart. coord. in units 2 pi/alat)
               b(1) = ( -1.000000 -1.000000  1.000000 )  
               b(2) = (  1.000000  1.000000  1.000000 )  
               b(3) = ( -1.000000  1.000000 -1.000000 )  


     PseudoPot. # 1 for Si read from file:
     ../../pseudo/Si.vbc.UPF
     MD5 check sum: bcd8ae23180a2f07cc8655fe7dcd9644
     Pseudo is Norm-conserving, Zval =  4.0
     Generated by new atomic code, or converted to UPF format
     Using radial grid of  431 points,  2 beta functions with: 
                l(1) =   0
                l(2) =   1

     atomic species   valence    mass     pseudopotential
        Si             4.00    28.08550     Si( 1.00)

     48 Sym. Ops., with inversion, found



   Cartesian axes

     site n.     atom                  positions (alat units)
         1           Si  tau(   1) = (   0.0000000   0.0000000   0.0000000  )
         2           Si  tau(   2) = (   0.2500000   0.2500000   0.2500000  )

     number of k points=   120

     Number of k-points >= 100: set verbosity='high' to print them.

     Dense  grid:     2733 G-vectors     FFT dimensions: (  20,  20,  20)

     Estimated max dynamical RAM per process >       0.36 MB

     Estimated total dynamical RAM >       1.44 MB

     The potential is recalculated from file :
     ./tmp/_ph0/Si.save/charge-density

     Starting wfcs are    8 atomic wfcs

     Band Structure Calculation
     Davidson diagonalization with overlap

     ethr =  1.25E-10,  avg # of iterations = 11.6

     total cpu time spent up to now is        0.4 secs

     End of band structure calculation

     Number of k-points >= 100: set verbosity='high' to print the bands.

     highest occupied level (ev):     5.9568

     Writing config to output data dir ./tmp/_ph0/Si.save/

     Phonons on a uniform q-grid                                                

     bravais-lattice index     =            2
     lattice parameter (alat)  =      10.2000  a.u.
     unit-cell volume          =     265.3020 (a.u.)^3
     number of atoms/cell      =            2
     number of atomic types    =            1
     kinetic-energy cut-off    =      18.0000  Ry
     charge density cut-off    =      72.0000  Ry
     convergence threshold     =      1.0E-14
     beta                      =       0.7000
     number of iterations used =            4
     Exchange-correlation= PZ
                           (   1   1   0   0   0   0   0)


     celldm(1)=   10.20000  celldm(2)=    0.00000  celldm(3)=    0.00000
     celldm(4)=    0.00000  celldm(5)=    0.00000  celldm(6)=    0.00000

     crystal axes: (cart. coord. in units of alat)
               a(1) = ( -0.5000  0.0000  0.5000 )  
               a(2) = (  0.0000  0.5000  0.5000 )  
               a(3) = ( -0.5000  0.5000  0.0000 )  

     reciprocal axes: (cart. coord. in units 2 pi/alat)
               b(1) = ( -1.0000 -1.0000  1.0000 )  
               b(2) = (  1.0000  1.0000  1.0000 )  
               b(3) = ( -1.0000  1.0000 -1.0000 )  


     Atoms inside the unit cell: 

     Cartesian axes

     site n.  atom      mass           positions (alat units)
        1     Si  28.0855   tau(    1) = (    0.00000    0.00000    0.00000  )
        2     Si  28.0855   tau(    2) = (    0.25000    0.25000    0.25000  )

     Computing dynamical matrix for 
                    q = (  -0.2500000   0.2500000  -0.2500000 )

      6 Sym.Ops. (no q -> -q+G )


     G cutoff =  189.7462  (    683 G-vectors)     FFT grid: ( 20, 20, 20)
     number of k points=   120

     PseudoPot. # 1 for Si read from file:
     ../../pseudo/Si.vbc.UPF
     MD5 check sum: bcd8ae23180a2f07cc8655fe7dcd9644
     Pseudo is Norm-conserving, Zval =  4.0
     Generated by new atomic code, or converted to UPF format
     Using radial grid of  431 points,  2 beta functions with: 
                l(1) =   0
                l(2) =   1

     Mode symmetry, C_3v (3m)   point group:


     Atomic displacements:
     There are    4 irreducible representations

     Representation     1      1 modes -  To be done

     Representation     2      1 modes -  To be done

     Representation     3      2 modes -  To be done

     Representation     4      2 modes -  To be done



     Alpha used in Ewald sum =   0.7000
     PHONON       :      1.80s CPU      2.02s WALL



     Representation #   1 mode #   1

     Self-consistent Calculation

      iter #   1 total cpu time :     2.1 secs   av.it.:   5.5
      thresh= 1.000E-02 alpha_mix =  0.700 |ddv_scf|^2 =  2.641E-03

      iter #   2 total cpu time :     2.2 secs   av.it.:   7.1
      thresh= 5.139E-03 alpha_mix =  0.700 |ddv_scf|^2 =  4.058E-02

      iter #   3 total cpu time :     2.3 secs   av.it.:   6.2
      thresh= 1.000E-02 alpha_mix =  0.700 |ddv_scf|^2 =  1.662E-06

      iter #   4 total cpu time :     2.4 secs   av.it.:   7.7
      thresh= 1.289E-04 alpha_mix =  0.700 |ddv_scf|^2 =  1.559E-07

      iter #   5 total cpu time :     2.5 secs   av.it.:   7.3
      thresh= 3.949E-05 alpha_mix =  0.700 |ddv_scf|^2 =  2.964E-10

      iter #   6 total cpu time :     2.6 secs   av.it.:   7.7
      thresh= 1.722E-06 alpha_mix =  0.700 |ddv_scf|^2 =  1.870E-10

      iter #   7 total cpu time :     2.7 secs   av.it.:   6.6
      thresh= 1.368E-06 alpha_mix =  0.700 |ddv_scf|^2 =  1.777E-10

      iter #   8 total cpu time :     2.8 secs   av.it.:   6.4
      thresh= 1.333E-06 alpha_mix =  0.700 |ddv_scf|^2 =  7.210E-13

      iter #   9 total cpu time :     2.9 secs   av.it.:   6.8
      thresh= 8.491E-08 alpha_mix =  0.700 |ddv_scf|^2 =  3.784E-14

      iter #  10 total cpu time :     3.0 secs   av.it.:   7.3
      thresh= 1.945E-08 alpha_mix =  0.700 |ddv_scf|^2 =  2.756E-15

     End of self-consistent calculation

     Convergence has been achieved 


     Representation #   2 mode #   2

     Self-consistent Calculation

      iter #   1 total cpu time :     3.1 secs   av.it.:   5.5
      thresh= 1.000E-02 alpha_mix =  0.700 |ddv_scf|^2 =  2.641E-03

      iter #   2 total cpu time :     3.2 secs   av.it.:   7.1
      thresh= 5.139E-03 alpha_mix =  0.700 |ddv_scf|^2 =  4.058E-02

      iter #   3 total cpu time :     3.3 secs   av.it.:   6.2
      thresh= 1.000E-02 alpha_mix =  0.700 |ddv_scf|^2 =  1.662E-06

      iter #   4 total cpu time :     3.4 secs   av.it.:   7.7
      thresh= 1.289E-04 alpha_mix =  0.700 |ddv_scf|^2 =  1.559E-07

      iter #   5 total cpu time :     3.5 secs   av.it.:   7.3
      thresh= 3.949E-05 alpha_mix =  0.700 |ddv_scf|^2 =  2.964E-10

      iter #   6 total cpu time :     3.6 secs   av.it.:   7.7
      thresh= 1.722E-06 alpha_mix =  0.700 |ddv_scf|^2 =  1.870E-10

      iter #   7 total cpu time :     3.7 secs   av.it.:   6.6
      thresh= 1.368E-06 alpha_mix =  0.700 |ddv_scf|^2 =  1.777E-10

      iter #   8 total cpu time :     3.8 secs   av.it.:   6.4
      thresh= 1.333E-06 alpha_mix =  0.700 |ddv_scf|^2 =  7.210E-13

      iter #   9 total cpu time :     3.9 secs   av.it.:   6.8
      thresh= 8.491E-08 alpha_mix =  0.700 |ddv_scf|^2 =  3.784E-14

      iter #  10 total cpu time :     4.0 secs   av.it.:   7.3
      thresh= 1.945E-08 alpha_mix =  0.700 |ddv_scf|^2 =  2.756E-15

     End of self-consistent calculation

     Convergence has been achieved 


     Representation #   3 modes #   3   4

     Self-consistent Calculation

      iter #   1 total cpu time :     4.1 secs   av.it.:   5.1
      thresh= 1.000E-02 alpha_mix =  0.700 |ddv_scf|^2 =  5.098E-07

      iter #   2 total cpu time :     4.4 secs   av.it.:   9.3
      thresh= 7.140E-05 alpha_mix =  0.700 |ddv_scf|^2 =  2.776E-08

      iter #   3 total cpu time :     4.6 secs   av.it.:   9.1
      thresh= 1.666E-05 alpha_mix =  0.700 |ddv_scf|^2 =  1.272E-10

      iter #   4 total cpu time :     4.9 secs   av.it.:   9.0
      thresh= 1.128E-06 alpha_mix =  0.700 |ddv_scf|^2 =  8.307E-12

      iter #   5 total cpu time :     5.1 secs   av.it.:   8.8
      thresh= 2.882E-07 alpha_mix =  0.700 |ddv_scf|^2 =  1.509E-14

      iter #   6 total cpu time :     5.3 secs   av.it.:   9.3
      thresh= 1.229E-08 alpha_mix =  0.700 |ddv_scf|^2 =  2.400E-16

     End of self-consistent calculation

     Convergence has been achieved 


     Representation #   4 modes #   5   6

     Self-consistent Calculation

      iter #   1 total cpu time :     5.5 secs   av.it.:   5.1
      thresh= 1.000E-02 alpha_mix =  0.700 |ddv_scf|^2 =  5.096E-07

      iter #   2 total cpu time :     5.7 secs   av.it.:   9.4
      thresh= 7.138E-05 alpha_mix =  0.700 |ddv_scf|^2 =  2.770E-08

      iter #   3 total cpu time :     6.0 secs   av.it.:   9.2
      thresh= 1.664E-05 alpha_mix =  0.700 |ddv_scf|^2 =  1.274E-10

      iter #   4 total cpu time :     6.2 secs   av.it.:   9.0
      thresh= 1.129E-06 alpha_mix =  0.700 |ddv_scf|^2 =  8.295E-12

      iter #   5 total cpu time :     6.4 secs   av.it.:   8.9
      thresh= 2.880E-07 alpha_mix =  0.700 |ddv_scf|^2 =  1.541E-14

      iter #   6 total cpu time :     6.7 secs   av.it.:   9.3
      thresh= 1.241E-08 alpha_mix =  0.700 |ddv_scf|^2 =  2.389E-16

     End of self-consistent calculation

     Convergence has been achieved 

     Number of q in the star =    8
     List of q in the star:
          1  -0.250000000   0.250000000  -0.250000000
          2   0.250000000  -0.250000000  -0.250000000
          3   0.250000000  -0.250000000   0.250000000
          4   0.250000000   0.250000000   0.250000000
          5  -0.250000000  -0.250000000  -0.250000000
          6  -0.250000000  -0.250000000   0.250000000
          7  -0.250000000   0.250000000   0.250000000
          8   0.250000000   0.250000000  -0.250000000

     Diagonalizing the dynamical matrix

     q = (   -0.250000000   0.250000000  -0.250000000 ) 

 **************************************************************************
     freq (    1) =       2.804688 [THz] =      93.554337 [cm-1]
     freq (    2) =       2.804688 [THz] =      93.554337 [cm-1]
     freq (    3) =       6.878597 [THz] =     229.445296 [cm-1]
     freq (    4) =      14.458802 [THz] =     482.293735 [cm-1]
     freq (    5) =      14.764479 [THz] =     492.490004 [cm-1]
     freq (    6) =      14.764479 [THz] =     492.490004 [cm-1]
 **************************************************************************

     Mode symmetry, C_3v (3m)   point group:

     freq (   1-   2) =         93.6  [cm-1]   --> E    L_3           
     freq (   3-   3) =        229.4  [cm-1]   --> A_1  L_1           
     freq (   4-   4) =        482.3  [cm-1]   --> A_1  L_1           
     freq (   5-   6) =        492.5  [cm-1]   --> E    L_3           

     Calculation of q =    0.5000000  -0.5000000   0.5000000

     Parallelization info
     --------------------
     sticks:   dense  smooth     PW     G-vecs:    dense   smooth      PW
     Min          63      63     24                  682      682     161
     Max          64      64     25                  686      686     162
     Sum         253     253     97                 2733     2733     645

     Using Slab Decomposition


     Title: 
     Phonons on a uniform q-grid                                                


     bravais-lattice index     =            2
     lattice parameter (alat)  =      10.2000  a.u.
     unit-cell volume          =     265.3020 (a.u.)^3
     number of atoms/cell      =            2
     number of atomic types    =            1
     number of electrons       =         8.00
     number of Kohn-Sham states=            4
     kinetic-energy cutoff     =      18.0000  Ry
     charge density cutoff     =      72.0000  Ry
     Exchange-correlation= PZ
                           (   1   1   0   0   0   0   0)

     celldm(1)=  10.200000  celldm(2)=   0.000000  celldm(3)=   0.000000
     celldm(4)=   0.000000  celldm(5)=   0.000000  celldm(6)=   0.000000

     crystal axes: (cart. coord. in units of alat)
               a(1) = (  -0.500000   0.000000   0.500000 )  
               a(2) = (   0.000000   0.500000   0.500000 )  
               a(3) = (  -0.500000   0.500000   0.000000 )  

     reciprocal axes: (cart. coord. in units 2 pi/alat)
               b(1) = ( -1.000000 -1.000000  1.000000 )  
               b(2) = (  1.000000  1.000000  1.000000 )  
               b(3) = ( -1.000000  1.000000 -1.000000 )  


     PseudoPot. # 1 for Si read from file:
     ../../pseudo/Si.vbc.UPF
     MD5 check sum: bcd8ae23180a2f07cc8655fe7dcd9644
     Pseudo is Norm-conserving, Zval =  4.0
     Generated by new atomic code, or converted to UPF format
     Using radial grid of  431 points,  2 beta functions with: 
                l(1) =   0
                l(2) =   1

     atomic species   valence    mass     pseudopotential
        Si             4.00    28.08550     Si( 1.00)

     48 Sym. Ops., with inversion, found



   Cartesian axes

     site n.     atom                  positions (alat units)
         1           Si  tau(   1) = (   0.0000000   0.0000000   0.0000000  )
         2           Si  tau(   2) = (   0.2500000   0.2500000   0.2500000  )

     number of k points=    60
                       cart. coord. in units 2pi/alat
        k(    1) = (   0.1250000   0.1250000   0.1250000), wk =   0.0468750
        k(    2) = (   0.6250000  -0.3750000   0.6250000), wk =   0.0000000
        k(    3) = (   0.1250000   0.1250000   0.3750000), wk =   0.0937500
        k(    4) = (   0.6250000  -0.3750000   0.8750000), wk =   0.0000000
        k(    5) = (   0.1250000   0.1250000   0.6250000), wk =   0.0937500
        k(    6) = (   0.6250000  -0.3750000   1.1250000), wk =   0.0000000
        k(    7) = (   0.1250000   0.1250000   0.8750000), wk =   0.0937500
        k(    8) = (   0.6250000  -0.3750000   1.3750000), wk =   0.0000000
        k(    9) = (   0.1250000   0.3750000   0.3750000), wk =   0.0937500
        k(   10) = (   0.6250000  -0.1250000   0.8750000), wk =   0.0000000
        k(   11) = (   0.1250000   0.3750000   0.6250000), wk =   0.0937500
        k(   12) = (   0.6250000  -0.1250000   1.1250000), wk =   0.0000000
        k(   13) = (   0.1250000   0.3750000   0.8750000), wk =   0.0937500
        k(   14) = (   0.6250000  -0.1250000   1.3750000), wk =   0.0000000
        k(   15) = (   0.1250000   0.6250000   0.6250000), wk =   0.0937500
        k(   16) = (   0.6250000   0.1250000   1.1250000), wk =   0.0000000
        k(   17) = (   0.3750000   0.3750000   0.3750000), wk =   0.0468750
        k(   18) = (   0.8750000  -0.1250000   0.8750000), wk =   0.0000000
        k(   19) = (   0.3750000   0.3750000   0.6250000), wk =   0.0937500
        k(   20) = (   0.8750000  -0.1250000   1.1250000), wk =   0.0000000
        k(   21) = (   0.1250000  -0.1250000   0.1250000), wk =   0.0156250
        k(   22) = (   0.6250000  -0.6250000   0.6250000), wk =   0.0000000
        k(   23) = (   0.1250000  -0.1250000   0.3750000), wk =   0.0468750
        k(   24) = (   0.6250000  -0.6250000   0.8750000), wk =   0.0000000
        k(   25) = (  -0.3750000  -0.1250000   0.1250000), wk =   0.0468750
        k(   26) = (   0.1250000  -0.6250000   0.6250000), wk =   0.0000000
        k(   27) = (   0.1250000  -0.1250000   0.6250000), wk =   0.0468750
        k(   28) = (   0.6250000  -0.6250000   1.1250000), wk =   0.0000000
        k(   29) = (  -0.6250000  -0.1250000   0.1250000), wk =   0.0468750
        k(   30) = (  -0.1250000  -0.6250000   0.6250000), wk =   0.0000000
        k(   31) = (   0.1250000  -0.1250000   0.8750000), wk =   0.0468750
        k(   32) = (   0.6250000  -0.6250000   1.3750000), wk =   0.0000000
        k(   33) = (  -0.8750000  -0.1250000   0.1250000), wk =   0.0468750
        k(   34) = (  -0.3750000  -0.6250000   0.6250000), wk =   0.0000000
        k(   35) = (   0.1250000  -0.3750000   0.3750000), wk =   0.0468750
        k(   36) = (   0.6250000  -0.8750000   0.8750000), wk =   0.0000000
        k(   37) = (   0.3750000  -0.3750000  -0.1250000), wk =   0.0468750
        k(   38) = (   0.8750000  -0.8750000   0.3750000), wk =   0.0000000
        k(   39) = (   0.1250000  -0.3750000   0.6250000), wk =   0.0937500
        k(   40) = (   0.6250000  -0.8750000   1.1250000), wk =   0.0000000
        k(   41) = (  -0.6250000  -0.3750000   0.1250000), wk =   0.0937500
        k(   42) = (  -0.1250000  -0.8750000   0.6250000), wk =   0.0000000
        k(   43) = (   0.6250000  -0.3750000  -0.1250000), wk =   0.0937500
        k(   44) = (   1.1250000  -0.8750000   0.3750000), wk =   0.0000000
        k(   45) = (   0.1250000  -0.3750000   0.8750000), wk =   0.0937500
        k(   46) = (   0.6250000  -0.8750000   1.3750000), wk =   0.0000000
        k(   47) = (  -0.8750000  -0.3750000   0.1250000), wk =   0.0937500
        k(   48) = (  -0.3750000  -0.8750000   0.6250000), wk =   0.0000000
        k(   49) = (   0.8750000  -0.3750000  -0.1250000), wk =   0.0937500
        k(   50) = (   1.3750000  -0.8750000   0.3750000), wk =   0.0000000
        k(   51) = (   0.1250000  -0.6250000   0.6250000), wk =   0.0468750
        k(   52) = (   0.6250000  -1.1250000   1.1250000), wk =   0.0000000
        k(   53) = (   0.6250000  -0.6250000  -0.1250000), wk =   0.0468750
        k(   54) = (   1.1250000  -1.1250000   0.3750000), wk =   0.0000000
        k(   55) = (   0.3750000  -0.3750000   0.3750000), wk =   0.0156250
        k(   56) = (   0.8750000  -0.8750000   0.8750000), wk =   0.0000000
        k(   57) = (   0.3750000  -0.3750000   0.6250000), wk =   0.0468750
        k(   58) = (   0.8750000  -0.8750000   1.1250000), wk =   0.0000000
        k(   59) = (  -0.6250000  -0.3750000   0.3750000), wk =   0.0468750
        k(   60) = (  -0.1250000  -0.8750000   0.8750000), wk =   0.0000000

     Dense  grid:     2733 G-vectors     FFT dimensions: (  20,  20,  20)

     Estimated max dynamical RAM per process >       0.36 MB

     Estimated total dynamical RAM >       1.44 MB

     The potential is recalculated from file :
     ./tmp/_ph0/Si.save/charge-density

     Starting wfcs are    8 atomic wfcs

     Band Structure Calculation
     Davidson diagonalization with overlap

     ethr =  1.25E-10,  avg # of iterations = 11.6

     total cpu time spent up to now is        0.6 secs

     End of band structure calculation

          k = 0.1250 0.1250 0.1250 (   335 PWs)   bands (ev):

    -5.6039   4.6467   5.9568   5.9568

          k = 0.6250-0.3750 0.6250 (   343 PWs)   bands (ev):

    -3.3347  -0.5842   3.9340   4.6556

          k = 0.1250 0.1250 0.3750 (   338 PWs)   bands (ev):

    -5.0584   3.0175   4.9012   4.9909

          k = 0.6250-0.3750 0.8750 (   340 PWs)   bands (ev):

    -3.5491   0.3750   2.8565   4.2745

          k = 0.1250 0.1250 0.6250 (   337 PWs)   bands (ev):

    -3.9883   1.3106   3.5165   3.9919

          k = 0.6250-0.3750 1.1250 (   340 PWs)   bands (ev):

    -3.5491   0.3750   2.8565   4.2745

          k = 0.1250 0.1250 0.8750 (   343 PWs)   bands (ev):

    -2.4615  -0.5936   2.7226   3.5069

          k = 0.6250-0.3750 1.3750 (   343 PWs)   bands (ev):

    -3.3347  -0.5842   3.9340   4.6556

          k = 0.1250 0.3750 0.3750 (   341 PWs)   bands (ev):

    -4.5395   1.5909   3.8905   5.4637

          k = 0.6250-0.1250 0.8750 (   347 PWs)   bands (ev):

    -2.2719  -0.7033   2.0783   3.2106

          k = 0.1250 0.3750 0.6250 (   340 PWs)   bands (ev):

    -3.5491   0.3750   2.8565   4.2745

          k = 0.6250-0.1250 1.1250 (   347 PWs)   bands (ev):

    -2.2719  -0.7033   2.0783   3.2106

          k = 0.1250 0.3750 0.8750 (   347 PWs)   bands (ev):

    -2.2719  -0.7033   2.0783   3.2106

          k = 0.6250-0.1250 1.3750 (   344 PWs)   bands (ev):

    -2.8220  -0.4390   2.1614   4.3230

          k = 0.1250 0.6250 0.6250 (   344 PWs)   bands (ev):

    -2.8220  -0.4390   2.1614   4.3230

          k = 0.6250 0.1250 1.1250 (   347 PWs)   bands (ev):

    -2.2719  -0.7033   2.0783   3.2106

          k = 0.3750 0.3750 0.3750 (   350 PWs)   bands (ev):

    -4.0849   0.2304   5.1432   5.1432

          k = 0.8750-0.1250 0.8750 (   343 PWs)   bands (ev):

    -2.4615  -0.5936   2.7226   3.5069

          k = 0.3750 0.3750 0.6250 (   343 PWs)   bands (ev):

    -3.3347  -0.5842   3.9340   4.6556

          k = 0.8750-0.1250 1.1250 (   343 PWs)   bands (ev):

    -2.4615  -0.5936   2.7226   3.5069

          k = 0.1250-0.1250 0.1250 (   335 PWs)   bands (ev):

    -5.6039   4.6467   5.9568   5.9568

          k = 0.6250-0.6250 0.6250 (   350 PWs)   bands (ev):

    -4.0849   0.2304   5.1432   5.1432

          k = 0.1250-0.1250 0.3750 (   338 PWs)   bands (ev):

    -5.0584   3.0175   4.9012   4.9909

          k = 0.6250-0.6250 0.8750 (   341 PWs)   bands (ev):

    -4.5395   1.5909   3.8905   5.4637

          k =-0.3750-0.1250 0.1250 (   338 PWs)   bands (ev):

    -5.0584   3.0175   4.9012   4.9909

          k = 0.1250-0.6250 0.6250 (   344 PWs)   bands (ev):

    -2.8220  -0.4390   2.1614   4.3230

          k = 0.1250-0.1250 0.6250 (   337 PWs)   bands (ev):

    -3.9883   1.3106   3.5165   3.9919

          k = 0.6250-0.6250 1.1250 (   341 PWs)   bands (ev):

    -4.5395   1.5909   3.8905   5.4637

          k =-0.6250-0.1250 0.1250 (   337 PWs)   bands (ev):

    -3.9883   1.3106   3.5165   3.9919

          k =-0.1250-0.6250 0.6250 (   344 PWs)   bands (ev):

    -2.8220  -0.4390   2.1614   4.3230

          k = 0.1250-0.1250 0.8750 (   343 PWs)   bands (ev):

    -2.4615  -0.5936   2.7226   3.5069

          k = 0.6250-0.6250 1.3750 (   350 PWs)   bands (ev):

    -4.0849   0.2304   5.1432   5.1432

          k =-0.8750-0.1250 0.1250 (   343 PWs)   bands (ev):

    -2.4615  -0.5936   2.7226   3.5069

          k =-0.3750-0.6250 0.6250 (   343 PWs)   bands (ev):

    -3.3347  -0.5842   3.9340   4.6556

          k = 0.1250-0.3750 0.3750 (   341 PWs)   bands (ev):

    -4.5395   1.5909   3.8905   5.4637

          k = 0.6250-0.8750 0.8750 (   338 PWs)   bands (ev):

    -5.0584   3.0175   4.9012   4.9909

          k = 0.3750-0.3750-0.1250 (   341 PWs)   bands (ev):

    -4.5395   1.5909   3.8905   5.4637

          k = 0.8750-0.8750 0.3750 (   337 PWs)   bands (ev):

    -3.9883   1.3106   3.5165   3.9919

          k = 0.1250-0.3750 0.6250 (   340 PWs)   bands (ev):

    -3.5491   0.3750   2.8565   4.2745

          k = 0.6250-0.8750 1.1250 (   338 PWs)   bands (ev):

    -5.0584   3.0175   4.9012   4.9909

          k =-0.6250-0.3750 0.1250 (   340 PWs)   bands (ev):

    -3.5491   0.3750   2.8565   4.2745

          k =-0.1250-0.8750 0.6250 (   347 PWs)   bands (ev):

    -2.2719  -0.7033   2.0783   3.2106

          k = 0.6250-0.3750-0.1250 (   340 PWs)   bands (ev):

    -3.5491   0.3750   2.8565   4.2745

          k = 1.1250-0.8750 0.3750 (   337 PWs)   bands (ev):

    -3.9883   1.3106   3.5165   3.9919

          k = 0.1250-0.3750 0.8750 (   347 PWs)   bands (ev):

    -2.2719  -0.7033   2.0783   3.2106

          k = 0.6250-0.8750 1.3750 (   341 PWs)   bands (ev):

    -4.5395   1.5909   3.8905   5.4637

          k =-0.8750-0.3750 0.1250 (   347 PWs)   bands (ev):

    -2.2719  -0.7033   2.0783   3.2106

          k =-0.3750-0.8750 0.6250 (   340 PWs)   bands (ev):

    -3.5491   0.3750   2.8565   4.2745

          k = 0.8750-0.3750-0.1250 (   347 PWs)   bands (ev):

    -2.2719  -0.7033   2.0783   3.2106

          k = 1.3750-0.8750 0.3750 (   340 PWs)   bands (ev):

    -3.5491   0.3750   2.8565   4.2745

          k = 0.1250-0.6250 0.6250 (   344 PWs)   bands (ev):

    -2.8220  -0.4390   2.1614   4.3230

          k = 0.6250-1.1250 1.1250 (   338 PWs)   bands (ev):

    -5.0584   3.0175   4.9012   4.9909

          k = 0.6250-0.6250-0.1250 (   344 PWs)   bands (ev):

    -2.8220  -0.4390   2.1614   4.3230

          k = 1.1250-1.1250 0.3750 (   337 PWs)   bands (ev):

    -3.9883   1.3106   3.5165   3.9919

          k = 0.3750-0.3750 0.3750 (   350 PWs)   bands (ev):

    -4.0849   0.2304   5.1432   5.1432

          k = 0.8750-0.8750 0.8750 (   335 PWs)   bands (ev):

    -5.6039   4.6467   5.9568   5.9568

          k = 0.3750-0.3750 0.6250 (   343 PWs)   bands (ev):

    -3.3347  -0.5842   3.9340   4.6556

          k = 0.8750-0.8750 1.1250 (   335 PWs)   bands (ev):

    -5.6039   4.6467   5.9568   5.9568

          k =-0.6250-0.3750 0.3750 (   343 PWs)   bands (ev):

    -3.3347  -0.5842   3.9340   4.6556

          k =-0.1250-0.8750 0.8750 (   343 PWs)   bands (ev):

    -2.4615  -0.5936   2.7226   3.5069

     highest occupied level (ev):     5.9568

     Writing config to output data dir ./tmp/_ph0/Si.save/

     Phonons on a uniform q-grid                                                

     bravais-lattice index     =            2
     lattice parameter (alat)  =      10.2000  a.u.
     unit-cell volume          =     265.3020 (a.u.)^3
     number of atoms/cell      =            2
     number of atomic types    =            1
     kinetic-energy cut-off    =      18.0000  Ry
     charge density cut-off    =      72.0000  Ry
     convergence threshold     =      1.0E-14
     beta                      =       0.7000
     number of iterations used =            4
     Exchange-correlation= PZ
                           (   1   1   0   0   0   0   0)


     celldm(1)=   10.20000  celldm(2)=    0.00000  celldm(3)=    0.00000
     celldm(4)=    0.00000  celldm(5)=    0.00000  celldm(6)=    0.00000

     crystal axes: (cart. coord. in units of alat)
               a(1) = ( -0.5000  0.0000  0.5000 )  
               a(2) = (  0.0000  0.5000  0.5000 )  
               a(3) = ( -0.5000  0.5000  0.0000 )  

     reciprocal axes: (cart. coord. in units 2 pi/alat)
               b(1) = ( -1.0000 -1.0000  1.0000 )  
               b(2) = (  1.0000  1.0000  1.0000 )  
               b(3) = ( -1.0000  1.0000 -1.0000 )  


     Atoms inside the unit cell: 

     Cartesian axes

     site n.  atom      mass           positions (alat units)
        1     Si  28.0855   tau(    1) = (    0.00000    0.00000    0.00000  )
        2     Si  28.0855   tau(    2) = (    0.25000    0.25000    0.25000  )

     Computing dynamical matrix for 
                    q = (   0.5000000  -0.5000000   0.5000000 )

     13 Sym.Ops. (with q -> -q+G )


     G cutoff =  189.7462  (    683 G-vectors)     FFT grid: ( 20, 20, 20)
     number of k points=    60

     PseudoPot. # 1 for Si read from file:
     ../../pseudo/Si.vbc.UPF
     MD5 check sum: bcd8ae23180a2f07cc8655fe7dcd9644
     Pseudo is Norm-conserving, Zval =  4.0
     Generated by new atomic code, or converted to UPF format
     Using radial grid of  431 points,  2 beta functions with: 
                l(1) =   0
                l(2) =   1


     Atomic displacements:
     There are    4 irreducible representations

     Representation     1      1 modes -  To be done

     Representation     2      1 modes -  To be done

     Representation     3      2 modes -  To be done

     Representation     4      2 modes -  To be done



     Alpha used in Ewald sum =   0.7000
     PHONON       :      6.03s CPU      6.90s WALL



     Representation #   1 mode #   1

     Self-consistent Calculation

      iter #   1 total cpu time :     6.9 secs   av.it.:   5.0
      thresh= 1.000E-02 alpha_mix =  0.700 |ddv_scf|^2 =  2.373E-05

      iter #   2 total cpu time :     7.0 secs   av.it.:   7.9
      thresh= 4.872E-04 alpha_mix =  0.700 |ddv_scf|^2 =  1.994E-05

      iter #   3 total cpu time :     7.1 secs   av.it.:   7.2
      thresh= 4.466E-04 alpha_mix =  0.700 |ddv_scf|^2 =  1.934E-09

      iter #   4 total cpu time :     7.1 secs   av.it.:   7.5
      thresh= 4.398E-06 alpha_mix =  0.700 |ddv_scf|^2 =  3.769E-11

      iter #   5 total cpu time :     7.2 secs   av.it.:   7.4
      thresh= 6.139E-07 alpha_mix =  0.700 |ddv_scf|^2 =  3.238E-13

      iter #   6 total cpu time :     7.2 secs   av.it.:   7.3
      thresh= 5.690E-08 alpha_mix =  0.700 |ddv_scf|^2 =  2.800E-15

     End of self-consistent calculation

     Convergence has been achieved 


     Representation #   2 mode #   2

     Self-consistent Calculation

      iter #   1 total cpu time :     7.3 secs   av.it.:   5.5
      thresh= 1.000E-02 alpha_mix =  0.700 |ddv_scf|^2 =  3.935E-04

      iter #   2 total cpu time :     7.3 secs   av.it.:   8.0
      thresh= 1.984E-03 alpha_mix =  0.700 |ddv_scf|^2 =  1.262E-03

      iter #   3 total cpu time :     7.4 secs   av.it.:   7.1
      thresh= 3.552E-03 alpha_mix =  0.700 |ddv_scf|^2 =  3.704E-08

      iter #   4 total cpu time :     7.5 secs   av.it.:   8.0
      thresh= 1.925E-05 alpha_mix =  0.700 |ddv_scf|^2 =  8.547E-10

      iter #   5 total cpu time :     7.5 secs   av.it.:   8.1
      thresh= 2.924E-06 alpha_mix =  0.700 |ddv_scf|^2 =  6.845E-11

      iter #   6 total cpu time :     7.6 secs   av.it.:   7.4
      thresh= 8.273E-07 alpha_mix =  0.700 |ddv_scf|^2 =  8.139E-14

      iter #   7 total cpu time :     7.6 secs   av.it.:   7.9
      thresh= 2.853E-08 alpha_mix =  0.700 |ddv_scf|^2 =  4.066E-15

     End of self-consistent calculation

     Convergence has been achieved 


     Representation #   3 modes #   3   4

     Self-consistent Calculation

      iter #   1 total cpu time :     7.7 secs   av.it.:   5.0
      thresh= 1.000E-02 alpha_mix =  0.700 |ddv_scf|^2 =  1.143E-06

      iter #   2 total cpu time :     7.8 secs   av.it.:   9.1
      thresh= 1.069E-04 alpha_mix =  0.700 |ddv_scf|^2 =  9.451E-08

      iter #   3 total cpu time :     8.0 secs   av.it.:   8.9
      thresh= 3.074E-05 alpha_mix =  0.700 |ddv_scf|^2 =  1.114E-10

      iter #   4 total cpu time :     8.1 secs   av.it.:   8.5
      thresh= 1.055E-06 alpha_mix =  0.700 |ddv_scf|^2 =  4.065E-13

      iter #   5 total cpu time :     8.2 secs   av.it.:   8.8
      thresh= 6.376E-08 alpha_mix =  0.700 |ddv_scf|^2 =  1.894E-15

     End of self-consistent calculation

     Convergence has been achieved 


     Representation #   4 modes #   5   6

     Self-consistent Calculation

      iter #   1 total cpu time :     8.3 secs   av.it.:   4.8
      thresh= 1.000E-02 alpha_mix =  0.700 |ddv_scf|^2 =  1.310E-07

      iter #   2 total cpu time :     8.4 secs   av.it.:   9.2
      thresh= 3.620E-05 alpha_mix =  0.700 |ddv_scf|^2 =  2.401E-09

      iter #   3 total cpu time :     8.5 secs   av.it.:   9.1
      thresh= 4.900E-06 alpha_mix =  0.700 |ddv_scf|^2 =  7.872E-11

      iter #   4 total cpu time :     8.7 secs   av.it.:   8.5
      thresh= 8.872E-07 alpha_mix =  0.700 |ddv_scf|^2 =  1.329E-13

      iter #   5 total cpu time :     8.8 secs   av.it.:   9.2
      thresh= 3.645E-08 alpha_mix =  0.700 |ddv_scf|^2 =  1.803E-15

     End of self-consistent calculation

     Convergence has been achieved 

     Number of q in the star =    4
     List of q in the star:
          1   0.500000000  -0.500000000   0.500000000
          2   0.500000000   0.500000000   0.500000000
          3  -0.500000000   0.500000000   0.500000000
          4   0.500000000   0.500000000  -0.500000000

     Diagonalizing the dynamical matrix

     q = (    0.500000000  -0.500000000   0.500000000 ) 

 **************************************************************************
     freq (    1) =       3.203258 [THz] =     106.849182 [cm-1]
     freq (    2) =       3.203258 [THz] =     106.849182 [cm-1]
     freq (    3) =      11.184371 [THz] =     373.070447 [cm-1]
     freq (    4) =      12.322515 [THz] =     411.034841 [cm-1]
     freq (    5) =      14.593601 [THz] =     486.790139 [cm-1]
     freq (    6) =      14.593601 [THz] =     486.790139 [cm-1]
 **************************************************************************

     Calculation of q =    0.0000000   0.5000000   0.0000000

     Parallelization info
     --------------------
     sticks:   dense  smooth     PW     G-vecs:    dense   smooth      PW
     Min          63      63     22                  682      682     152
     Max          64      64     23                  686      686     153
     Sum         253     253     91                 2733     2733     609

     Using Slab Decomposition


     Title: 
     Phonons on a uniform q-grid                                                


     bravais-lattice index     =            2
     lattice parameter (alat)  =      10.2000  a.u.
     unit-cell volume          =     265.3020 (a.u.)^3
     number of atoms/cell      =            2
     number of atomic types    =            1
     number of electrons       =         8.00
     number of Kohn-Sham states=            4
     kinetic-energy cutoff     =      18.0000  Ry
     charge density cutoff     =      72.0000  Ry
     Exchange-correlation= PZ
                           (   1   1   0   0   0   0   0)

     celldm(1)=  10.200000  celldm(2)=   0.000000  celldm(3)=   0.000000
     celldm(4)=   0.000000  celldm(5)=   0.000000  celldm(6)=   0.000000

     crystal axes: (cart. coord. in units of alat)
               a(1) = (  -0.500000   0.000000   0.500000 )  
               a(2) = (   0.000000   0.500000   0.500000 )  
               a(3) = (  -0.500000   0.500000   0.000000 )  

     reciprocal axes: (cart. coord. in units 2 pi/alat)
               b(1) = ( -1.000000 -1.000000  1.000000 )  
               b(2) = (  1.000000  1.000000  1.000000 )  
               b(3) = ( -1.000000  1.000000 -1.000000 )  


     PseudoPot. # 1 for Si read from file:
     ../../pseudo/Si.vbc.UPF
     MD5 check sum: bcd8ae23180a2f07cc8655fe7dcd9644
     Pseudo is Norm-conserving, Zval =  4.0
     Generated by new atomic code, or converted to UPF format
     Using radial grid of  431 points,  2 beta functions with: 
                l(1) =   0
                l(2) =   1

     atomic species   valence    mass     pseudopotential
        Si             4.00    28.08550     Si( 1.00)

     48 Sym. Ops., with inversion, found



   Cartesian axes

     site n.     atom                  positions (alat units)
         1           Si  tau(   1) = (   0.0000000   0.0000000   0.0000000  )
         2           Si  tau(   2) = (   0.2500000   0.2500000   0.2500000  )

     number of k points=    80
                       cart. coord. in units 2pi/alat
        k(    1) = (   0.1250000   0.1250000   0.1250000), wk =   0.0312500
        k(    2) = (   0.1250000   0.6250000   0.1250000), wk =   0.0000000
        k(    3) = (   0.1250000   0.1250000   0.3750000), wk =   0.0625000
        k(    4) = (   0.1250000   0.6250000   0.3750000), wk =   0.0000000
        k(    5) = (   0.1250000   0.1250000   0.6250000), wk =   0.0625000
        k(    6) = (   0.1250000   0.6250000   0.6250000), wk =   0.0000000
        k(    7) = (   0.1250000   0.1250000   0.8750000), wk =   0.0625000
        k(    8) = (   0.1250000   0.6250000   0.8750000), wk =   0.0000000
        k(    9) = (   0.1250000   0.3750000   0.3750000), wk =   0.0625000
        k(   10) = (   0.1250000   0.8750000   0.3750000), wk =   0.0000000
        k(   11) = (   0.1250000   0.3750000   0.6250000), wk =   0.0625000
        k(   12) = (   0.1250000   0.8750000   0.6250000), wk =   0.0000000
        k(   13) = (   0.1250000   0.3750000   0.8750000), wk =   0.0625000
        k(   14) = (   0.1250000   0.8750000   0.8750000), wk =   0.0000000
        k(   15) = (   0.1250000   0.6250000   0.6250000), wk =   0.0625000
        k(   16) = (   0.1250000   1.1250000   0.6250000), wk =   0.0000000
        k(   17) = (   0.3750000   0.3750000   0.3750000), wk =   0.0312500
        k(   18) = (   0.3750000   0.8750000   0.3750000), wk =   0.0000000
        k(   19) = (   0.3750000   0.3750000   0.6250000), wk =   0.0625000
        k(   20) = (   0.3750000   0.8750000   0.6250000), wk =   0.0000000
        k(   21) = (  -0.1250000  -0.1250000  -0.1250000), wk =   0.0312500
        k(   22) = (  -0.1250000   0.3750000  -0.1250000), wk =   0.0000000
        k(   23) = (  -0.3750000  -0.1250000  -0.1250000), wk =   0.0625000
        k(   24) = (  -0.3750000   0.3750000  -0.1250000), wk =   0.0000000
        k(   25) = (   0.1250000   0.3750000  -0.1250000), wk =   0.0312500
        k(   26) = (   0.1250000   0.8750000  -0.1250000), wk =   0.0000000
        k(   27) = (   0.1250000  -0.3750000  -0.1250000), wk =   0.0312500
        k(   28) = (   0.1250000   0.1250000  -0.1250000), wk =   0.0000000
        k(   29) = (  -0.6250000  -0.1250000  -0.1250000), wk =   0.0625000
        k(   30) = (  -0.6250000   0.3750000  -0.1250000), wk =   0.0000000
        k(   31) = (   0.1250000   0.6250000  -0.1250000), wk =   0.0312500
        k(   32) = (   0.1250000   1.1250000  -0.1250000), wk =   0.0000000
        k(   33) = (   0.1250000  -0.6250000  -0.1250000), wk =   0.0312500
        k(   34) = (   0.1250000  -0.1250000  -0.1250000), wk =   0.0000000
        k(   35) = (  -0.8750000  -0.1250000  -0.1250000), wk =   0.0625000
        k(   36) = (  -0.8750000   0.3750000  -0.1250000), wk =   0.0000000
        k(   37) = (   0.1250000   0.8750000  -0.1250000), wk =   0.0312500
        k(   38) = (   0.1250000   1.3750000  -0.1250000), wk =   0.0000000
        k(   39) = (   0.1250000  -0.8750000  -0.1250000), wk =   0.0312500
        k(   40) = (   0.1250000  -0.3750000  -0.1250000), wk =   0.0000000
        k(   41) = (  -0.3750000  -0.3750000  -0.1250000), wk =   0.0625000
        k(   42) = (  -0.3750000   0.1250000  -0.1250000), wk =   0.0000000
        k(   43) = (   0.3750000   0.1250000  -0.3750000), wk =   0.0312500
        k(   44) = (   0.3750000   0.6250000  -0.3750000), wk =   0.0000000
        k(   45) = (   0.3750000  -0.1250000  -0.3750000), wk =   0.0312500
        k(   46) = (   0.3750000   0.3750000  -0.3750000), wk =   0.0000000
        k(   47) = (  -0.6250000  -0.3750000  -0.1250000), wk =   0.0625000
        k(   48) = (  -0.6250000   0.1250000  -0.1250000), wk =   0.0000000
        k(   49) = (   0.3750000   0.1250000  -0.6250000), wk =   0.0625000
        k(   50) = (   0.3750000   0.6250000  -0.6250000), wk =   0.0000000
        k(   51) = (   0.3750000   0.6250000  -0.1250000), wk =   0.0625000
        k(   52) = (   0.3750000   1.1250000  -0.1250000), wk =   0.0000000
        k(   53) = (   0.3750000  -0.6250000  -0.1250000), wk =   0.0625000
        k(   54) = (   0.3750000  -0.1250000  -0.1250000), wk =   0.0000000
        k(   55) = (   0.6250000  -0.1250000  -0.3750000), wk =   0.0625000
        k(   56) = (   0.6250000   0.3750000  -0.3750000), wk =   0.0000000
        k(   57) = (  -0.8750000  -0.3750000  -0.1250000), wk =   0.0625000
        k(   58) = (  -0.8750000   0.1250000  -0.1250000), wk =   0.0000000
        k(   59) = (   0.3750000   0.1250000  -0.8750000), wk =   0.0625000
        k(   60) = (   0.3750000   0.6250000  -0.8750000), wk =   0.0000000
        k(   61) = (   0.3750000   0.8750000  -0.1250000), wk =   0.0625000
        k(   62) = (   0.3750000   1.3750000  -0.1250000), wk =   0.0000000
        k(   63) = (   0.3750000  -0.8750000  -0.1250000), wk =   0.0625000
        k(   64) = (   0.3750000  -0.3750000  -0.1250000), wk =   0.0000000
        k(   65) = (   0.8750000  -0.1250000  -0.3750000), wk =   0.0625000
        k(   66) = (   0.8750000   0.3750000  -0.3750000), wk =   0.0000000
        k(   67) = (  -0.6250000  -0.6250000  -0.1250000), wk =   0.0625000
        k(   68) = (  -0.6250000  -0.1250000  -0.1250000), wk =   0.0000000
        k(   69) = (   0.6250000   0.1250000  -0.6250000), wk =   0.0312500
        k(   70) = (   0.6250000   0.6250000  -0.6250000), wk =   0.0000000
        k(   71) = (   0.6250000  -0.1250000  -0.6250000), wk =   0.0312500
        k(   72) = (   0.6250000   0.3750000  -0.6250000), wk =   0.0000000
        k(   73) = (  -0.3750000  -0.3750000  -0.3750000), wk =   0.0312500
        k(   74) = (  -0.3750000   0.1250000  -0.3750000), wk =   0.0000000
        k(   75) = (  -0.6250000  -0.3750000  -0.3750000), wk =   0.0625000
        k(   76) = (  -0.6250000   0.1250000  -0.3750000), wk =   0.0000000
        k(   77) = (   0.3750000   0.6250000  -0.3750000), wk =   0.0312500
        k(   78) = (   0.3750000   1.1250000  -0.3750000), wk =   0.0000000
        k(   79) = (   0.3750000  -0.6250000  -0.3750000), wk =   0.0312500
        k(   80) = (   0.3750000  -0.1250000  -0.3750000), wk =   0.0000000

     Dense  grid:     2733 G-vectors     FFT dimensions: (  20,  20,  20)

     Estimated max dynamical RAM per process >       0.36 MB

     Estimated total dynamical RAM >       1.44 MB

     The potential is recalculated from file :
     ./tmp/_ph0/Si.save/charge-density

     Starting wfcs are    8 atomic wfcs

     Band Structure Calculation
     Davidson diagonalization with overlap

     ethr =  1.25E-10,  avg # of iterations = 11.6

     total cpu time spent up to now is        0.9 secs

     End of band structure calculation

          k = 0.1250 0.1250 0.1250 (   335 PWs)   bands (ev):

    -5.6039   4.6467   5.9568   5.9568

          k = 0.1250 0.6250 0.1250 (   337 PWs)   bands (ev):

    -3.9883   1.3106   3.5165   3.9919

          k = 0.1250 0.1250 0.3750 (   338 PWs)   bands (ev):

    -5.0584   3.0175   4.9012   4.9909

          k = 0.1250 0.6250 0.3750 (   340 PWs)   bands (ev):

    -3.5491   0.3750   2.8565   4.2745

          k = 0.1250 0.1250 0.6250 (   337 PWs)   bands (ev):

    -3.9883   1.3106   3.5165   3.9919

          k = 0.1250 0.6250 0.6250 (   344 PWs)   bands (ev):

    -2.8220  -0.4390   2.1614   4.3230

          k = 0.1250 0.1250 0.8750 (   343 PWs)   bands (ev):

    -2.4615  -0.5936   2.7226   3.5069

          k = 0.1250 0.6250 0.8750 (   347 PWs)   bands (ev):

    -2.2719  -0.7033   2.0783   3.2106

          k = 0.1250 0.3750 0.3750 (   341 PWs)   bands (ev):

    -4.5395   1.5909   3.8905   5.4637

          k = 0.1250 0.8750 0.3750 (   347 PWs)   bands (ev):

    -2.2719  -0.7033   2.0783   3.2106

          k = 0.1250 0.3750 0.6250 (   340 PWs)   bands (ev):

    -3.5491   0.3750   2.8565   4.2745

          k = 0.1250 0.8750 0.6250 (   347 PWs)   bands (ev):

    -2.2719  -0.7033   2.0783   3.2106

          k = 0.1250 0.3750 0.8750 (   347 PWs)   bands (ev):

    -2.2719  -0.7033   2.0783   3.2106

          k = 0.1250 0.8750 0.8750 (   343 PWs)   bands (ev):

    -2.4615  -0.5936   2.7226   3.5069

          k = 0.1250 0.6250 0.6250 (   344 PWs)   bands (ev):

    -2.8220  -0.4390   2.1614   4.3230

          k = 0.1250 1.1250 0.6250 (   347 PWs)   bands (ev):

    -2.2719  -0.7033   2.0783   3.2106

          k = 0.3750 0.3750 0.3750 (   350 PWs)   bands (ev):

    -4.0849   0.2304   5.1432   5.1432

          k = 0.3750 0.8750 0.3750 (   344 PWs)   bands (ev):

    -2.8220  -0.4390   2.1614   4.3230

          k = 0.3750 0.3750 0.6250 (   343 PWs)   bands (ev):

    -3.3347  -0.5842   3.9340   4.6556

          k = 0.3750 0.8750 0.6250 (   340 PWs)   bands (ev):

    -3.5491   0.3750   2.8565   4.2745

          k =-0.1250-0.1250-0.1250 (   335 PWs)   bands (ev):

    -5.6039   4.6467   5.9568   5.9568

          k =-0.1250 0.3750-0.1250 (   338 PWs)   bands (ev):

    -5.0584   3.0175   4.9012   4.9909

          k =-0.3750-0.1250-0.1250 (   338 PWs)   bands (ev):

    -5.0584   3.0175   4.9012   4.9909

          k =-0.3750 0.3750-0.1250 (   341 PWs)   bands (ev):

    -4.5395   1.5909   3.8905   5.4637

          k = 0.1250 0.3750-0.1250 (   338 PWs)   bands (ev):

    -5.0584   3.0175   4.9012   4.9909

          k = 0.1250 0.8750-0.1250 (   343 PWs)   bands (ev):

    -2.4615  -0.5936   2.7226   3.5069

          k = 0.1250-0.3750-0.1250 (   338 PWs)   bands (ev):

    -5.0584   3.0175   4.9012   4.9909

          k = 0.1250 0.1250-0.1250 (   335 PWs)   bands (ev):

    -5.6039   4.6467   5.9568   5.9568

          k =-0.6250-0.1250-0.1250 (   337 PWs)   bands (ev):

    -3.9883   1.3106   3.5165   3.9919

          k =-0.6250 0.3750-0.1250 (   340 PWs)   bands (ev):

    -3.5491   0.3750   2.8565   4.2745

          k = 0.1250 0.6250-0.1250 (   337 PWs)   bands (ev):

    -3.9883   1.3106   3.5165   3.9919

          k = 0.1250 1.1250-0.1250 (   343 PWs)   bands (ev):

    -2.4615  -0.5936   2.7226   3.5069

          k = 0.1250-0.6250-0.1250 (   337 PWs)   bands (ev):

    -3.9883   1.3106   3.5165   3.9919

          k = 0.1250-0.1250-0.1250 (   335 PWs)   bands (ev):

    -5.6039   4.6467   5.9568   5.9568

          k =-0.8750-0.1250-0.1250 (   343 PWs)   bands (ev):

    -2.4615  -0.5936   2.7226   3.5069

          k =-0.8750 0.3750-0.1250 (   347 PWs)   bands (ev):

    -2.2719  -0.7033   2.0783   3.2106

          k = 0.1250 0.8750-0.1250 (   343 PWs)   bands (ev):

    -2.4615  -0.5936   2.7226   3.5069

          k = 0.1250 1.3750-0.1250 (   337 PWs)   bands (ev):

    -3.9883   1.3106   3.5165   3.9919

          k = 0.1250-0.8750-0.1250 (   343 PWs)   bands (ev):

    -2.4615  -0.5936   2.7226   3.5069

          k = 0.1250-0.3750-0.1250 (   338 PWs)   bands (ev):

    -5.0584   3.0175   4.9012   4.9909

          k =-0.3750-0.3750-0.1250 (   341 PWs)   bands (ev):

    -4.5395   1.5909   3.8905   5.4637

          k =-0.3750 0.1250-0.1250 (   338 PWs)   bands (ev):

    -5.0584   3.0175   4.9012   4.9909

          k = 0.3750 0.1250-0.3750 (   341 PWs)   bands (ev):

    -4.5395   1.5909   3.8905   5.4637

          k = 0.3750 0.6250-0.3750 (   343 PWs)   bands (ev):

    -3.3347  -0.5842   3.9340   4.6556

          k = 0.3750-0.1250-0.3750 (   341 PWs)   bands (ev):

    -4.5395   1.5909   3.8905   5.4637

          k = 0.3750 0.3750-0.3750 (   350 PWs)   bands (ev):

    -4.0849   0.2304   5.1432   5.1432

          k =-0.6250-0.3750-0.1250 (   340 PWs)   bands (ev):

    -3.5491   0.3750   2.8565   4.2745

          k =-0.6250 0.1250-0.1250 (   337 PWs)   bands (ev):

    -3.9883   1.3106   3.5165   3.9919

          k = 0.3750 0.1250-0.6250 (   340 PWs)   bands (ev):

    -3.5491   0.3750   2.8565   4.2745

          k = 0.3750 0.6250-0.6250 (   343 PWs)   bands (ev):

    -3.3347  -0.5842   3.9340   4.6556

          k = 0.3750 0.6250-0.1250 (   340 PWs)   bands (ev):

    -3.5491   0.3750   2.8565   4.2745

          k = 0.3750 1.1250-0.1250 (   347 PWs)   bands (ev):

    -2.2719  -0.7033   2.0783   3.2106

          k = 0.3750-0.6250-0.1250 (   340 PWs)   bands (ev):

    -3.5491   0.3750   2.8565   4.2745

          k = 0.3750-0.1250-0.1250 (   338 PWs)   bands (ev):

    -5.0584   3.0175   4.9012   4.9909

          k = 0.6250-0.1250-0.3750 (   340 PWs)   bands (ev):

    -3.5491   0.3750   2.8565   4.2745

          k = 0.6250 0.3750-0.3750 (   343 PWs)   bands (ev):

    -3.3347  -0.5842   3.9340   4.6556

          k =-0.8750-0.3750-0.1250 (   347 PWs)   bands (ev):

    -2.2719  -0.7033   2.0783   3.2106

          k =-0.8750 0.1250-0.1250 (   343 PWs)   bands (ev):

    -2.4615  -0.5936   2.7226   3.5069

          k = 0.3750 0.1250-0.8750 (   347 PWs)   bands (ev):

    -2.2719  -0.7033   2.0783   3.2106

          k = 0.3750 0.6250-0.8750 (   340 PWs)   bands (ev):

    -3.5491   0.3750   2.8565   4.2745

          k = 0.3750 0.8750-0.1250 (   347 PWs)   bands (ev):

    -2.2719  -0.7033   2.0783   3.2106

          k = 0.3750 1.3750-0.1250 (   340 PWs)   bands (ev):

    -3.5491   0.3750   2.8565   4.2745

          k = 0.3750-0.8750-0.1250 (   347 PWs)   bands (ev):

    -2.2719  -0.7033   2.0783   3.2106

          k = 0.3750-0.3750-0.1250 (   341 PWs)   bands (ev):

    -4.5395   1.5909   3.8905   5.4637

          k = 0.8750-0.1250-0.3750 (   347 PWs)   bands (ev):

    -2.2719  -0.7033   2.0783   3.2106

          k = 0.8750 0.3750-0.3750 (   344 PWs)   bands (ev):

    -2.8220  -0.4390   2.1614   4.3230

          k =-0.6250-0.6250-0.1250 (   344 PWs)   bands (ev):

    -2.8220  -0.4390   2.1614   4.3230

          k =-0.6250-0.1250-0.1250 (   337 PWs)   bands (ev):

    -3.9883   1.3106   3.5165   3.9919

          k = 0.6250 0.1250-0.6250 (   344 PWs)   bands (ev):

    -2.8220  -0.4390   2.1614   4.3230

          k = 0.6250 0.6250-0.6250 (   350 PWs)   bands (ev):

    -4.0849   0.2304   5.1432   5.1432

          k = 0.6250-0.1250-0.6250 (   344 PWs)   bands (ev):

    -2.8220  -0.4390   2.1614   4.3230

          k = 0.6250 0.3750-0.6250 (   343 PWs)   bands (ev):

    -3.3347  -0.5842   3.9340   4.6556

          k =-0.3750-0.3750-0.3750 (   350 PWs)   bands (ev):

    -4.0849   0.2304   5.1432   5.1432

          k =-0.3750 0.1250-0.3750 (   341 PWs)   bands (ev):

    -4.5395   1.5909   3.8905   5.4637

          k =-0.6250-0.3750-0.3750 (   343 PWs)   bands (ev):

    -3.3347  -0.5842   3.9340   4.6556

          k =-0.6250 0.1250-0.3750 (   340 PWs)   bands (ev):

    -3.5491   0.3750   2.8565   4.2745

          k = 0.3750 0.6250-0.3750 (   343 PWs)   bands (ev):

    -3.3347  -0.5842   3.9340   4.6556

          k = 0.3750 1.1250-0.3750 (   344 PWs)   bands (ev):

    -2.8220  -0.4390   2.1614   4.3230

          k = 0.3750-0.6250-0.3750 (   343 PWs)   bands (ev):

    -3.3347  -0.5842   3.9340   4.6556

          k = 0.3750-0.1250-0.3750 (   341 PWs)   bands (ev):

    -4.5395   1.5909   3.8905   5.4637

     highest occupied level (ev):     5.9568

     Writing config to output data dir ./tmp/_ph0/Si.save/

     Phonons on a uniform q-grid                                                

     bravais-lattice index     =            2
     lattice parameter (alat)  =      10.2000  a.u.
     unit-cell volume          =     265.3020 (a.u.)^3
     number of atoms/cell      =            2
     number of atomic types    =            1
     kinetic-energy cut-off    =      18.0000  Ry
     charge density cut-off    =      72.0000  Ry
     convergence threshold     =      1.0E-14
     beta                      =       0.7000
     number of iterations used =            4
     Exchange-correlation= PZ
                           (   1   1   0   0   0   0   0)


     celldm(1)=   10.20000  celldm(2)=    0.00000  celldm(3)=    0.00000
     celldm(4)=    0.00000  celldm(5)=    0.00000  celldm(6)=    0.00000

     crystal axes: (cart. coord. in units of alat)
               a(1) = ( -0.5000  0.0000  0.5000 )  
               a(2) = (  0.0000  0.5000  0.5000 )  
               a(3) = ( -0.5000  0.5000  0.0000 )  

     reciprocal axes: (cart. coord. in units 2 pi/alat)
               b(1) = ( -1.0000 -1.0000  1.0000 )  
               b(2) = (  1.0000  1.0000  1.0000 )  
               b(3) = ( -1.0000  1.0000 -1.0000 )  


     Atoms inside the unit cell: 

     Cartesian axes

     site n.  atom      mass           positions (alat units)
        1     Si  28.0855   tau(    1) = (    0.00000    0.00000    0.00000  )
        2     Si  28.0855   tau(    2) = (    0.25000    0.25000    0.25000  )

     Computing dynamical matrix for 
                    q = (   0.0000000   0.5000000   0.0000000 )

      8 Sym.Ops. (no q -> -q+G )


     G cutoff =  189.7462  (    683 G-vectors)     FFT grid: ( 20, 20, 20)
     number of k points=    80

     PseudoPot. # 1 for Si read from file:
     ../../pseudo/Si.vbc.UPF
     MD5 check sum: bcd8ae23180a2f07cc8655fe7dcd9644
     Pseudo is Norm-conserving, Zval =  4.0
     Generated by new atomic code, or converted to UPF format
     Using radial grid of  431 points,  2 beta functions with: 
                l(1) =   0
                l(2) =   1

     Mode symmetry, C_4v (4mm)  point group:


     Atomic displacements:
     There are    4 irreducible representations

     Representation     1      1 modes -  To be done

     Representation     2      1 modes -  To be done

     Representation     3      2 modes -  To be done

     Representation     4      2 modes -  To be done



     Alpha used in Ewald sum =   0.7000
     PHONON       :      7.90s CPU      9.07s WALL



     Representation #   1 mode #   1

     Self-consistent Calculation

      iter #   1 total cpu time :     9.2 secs   av.it.:   5.8
      thresh= 1.000E-02 alpha_mix =  0.700 |ddv_scf|^2 =  3.151E-03

      iter #   2 total cpu time :     9.3 secs   av.it.:   7.4
      thresh= 5.613E-03 alpha_mix =  0.700 |ddv_scf|^2 =  4.181E-02

      iter #   3 total cpu time :     9.4 secs   av.it.:   6.7
      thresh= 1.000E-02 alpha_mix =  0.700 |ddv_scf|^2 =  2.729E-08

      iter #   4 total cpu time :     9.5 secs   av.it.:   8.5
      thresh= 1.652E-05 alpha_mix =  0.700 |ddv_scf|^2 =  1.550E-09

      iter #   5 total cpu time :     9.5 secs   av.it.:   8.2
      thresh= 3.937E-06 alpha_mix =  0.700 |ddv_scf|^2 =  3.046E-11

      iter #   6 total cpu time :     9.6 secs   av.it.:   7.5
      thresh= 5.519E-07 alpha_mix =  0.700 |ddv_scf|^2 =  3.799E-13

      iter #   7 total cpu time :     9.7 secs   av.it.:   7.6
      thresh= 6.164E-08 alpha_mix =  0.700 |ddv_scf|^2 =  1.831E-14

      iter #   8 total cpu time :     9.8 secs   av.it.:   6.7
      thresh= 1.353E-08 alpha_mix =  0.700 |ddv_scf|^2 =  3.003E-17

     End of self-consistent calculation

     Convergence has been achieved 


     Representation #   2 mode #   2

     Self-consistent Calculation

      iter #   1 total cpu time :     9.8 secs   av.it.:   4.9
      thresh= 1.000E-02 alpha_mix =  0.700 |ddv_scf|^2 =  5.511E-06

      iter #   2 total cpu time :     9.9 secs   av.it.:   8.3
      thresh= 2.347E-04 alpha_mix =  0.700 |ddv_scf|^2 =  1.218E-06

      iter #   3 total cpu time :    10.0 secs   av.it.:   8.0
      thresh= 1.104E-04 alpha_mix =  0.700 |ddv_scf|^2 =  5.143E-09

      iter #   4 total cpu time :    10.0 secs   av.it.:   8.0
      thresh= 7.172E-06 alpha_mix =  0.700 |ddv_scf|^2 =  1.035E-10

      iter #   5 total cpu time :    10.1 secs   av.it.:   7.6
      thresh= 1.017E-06 alpha_mix =  0.700 |ddv_scf|^2 =  1.839E-12

      iter #   6 total cpu time :    10.2 secs   av.it.:   7.6
      thresh= 1.356E-07 alpha_mix =  0.700 |ddv_scf|^2 =  1.217E-15

     End of self-consistent calculation

     Convergence has been achieved 


     Representation #   3 modes #   3   4

     Self-consistent Calculation

      iter #   1 total cpu time :    10.3 secs   av.it.:   5.0
      thresh= 1.000E-02 alpha_mix =  0.700 |ddv_scf|^2 =  1.251E-06

      iter #   2 total cpu time :    10.5 secs   av.it.:   9.2
      thresh= 1.119E-04 alpha_mix =  0.700 |ddv_scf|^2 =  1.913E-07

      iter #   3 total cpu time :    10.6 secs   av.it.:   8.8
      thresh= 4.374E-05 alpha_mix =  0.700 |ddv_scf|^2 =  1.528E-10

      iter #   4 total cpu time :    10.8 secs   av.it.:   8.7
      thresh= 1.236E-06 alpha_mix =  0.700 |ddv_scf|^2 =  8.371E-12

      iter #   5 total cpu time :    10.9 secs   av.it.:   8.5
      thresh= 2.893E-07 alpha_mix =  0.700 |ddv_scf|^2 =  9.035E-15

     End of self-consistent calculation

     Convergence has been achieved 


     Representation #   4 modes #   5   6

     Self-consistent Calculation

      iter #   1 total cpu time :    11.0 secs   av.it.:   5.0
      thresh= 1.000E-02 alpha_mix =  0.700 |ddv_scf|^2 =  8.257E-07

      iter #   2 total cpu time :    11.2 secs   av.it.:   9.2
      thresh= 9.087E-05 alpha_mix =  0.700 |ddv_scf|^2 =  1.230E-07

      iter #   3 total cpu time :    11.4 secs   av.it.:   8.8
      thresh= 3.507E-05 alpha_mix =  0.700 |ddv_scf|^2 =  1.633E-10

      iter #   4 total cpu time :    11.5 secs   av.it.:   8.7
      thresh= 1.278E-06 alpha_mix =  0.700 |ddv_scf|^2 =  9.337E-12

      iter #   5 total cpu time :    11.7 secs   av.it.:   8.5
      thresh= 3.056E-07 alpha_mix =  0.700 |ddv_scf|^2 =  1.040E-14

      iter #   6 total cpu time :    11.8 secs   av.it.:   9.4
      thresh= 1.020E-08 alpha_mix =  0.700 |ddv_scf|^2 =  3.782E-17

     End of self-consistent calculation

     Convergence has been achieved 

     Number of q in the star =    6
     List of q in the star:
          1   0.000000000   0.500000000   0.000000000
          2   0.000000000  -0.500000000   0.000000000
          3   0.500000000   0.000000000   0.000000000
          4   0.000000000   0.000000000   0.500000000
          5   0.000000000   0.000000000  -0.500000000
          6  -0.500000000   0.000000000   0.000000000

     Diagonalizing the dynamical matrix

     q = (    0.000000000   0.500000000   0.000000000 ) 

 **************************************************************************
     freq (    1) =       3.763299 [THz] =     125.530135 [cm-1]
     freq (    2) =       3.763299 [THz] =     125.530135 [cm-1]
     freq (    3) =       7.195928 [THz] =     240.030312 [cm-1]
     freq (    4) =      14.138491 [THz] =     471.609309 [cm-1]
     freq (    5) =      14.138491 [THz] =     471.609309 [cm-1]
     freq (    6) =      14.697724 [THz] =     490.263288 [cm-1]
 **************************************************************************

     Mode symmetry, C_4v (4mm)  point group:

     freq (   1-   2) =        125.5  [cm-1]   --> E    G_5 D_5       
     freq (   3-   3) =        240.0  [cm-1]   --> A_1  G_1 D_1       
     freq (   4-   5) =        471.6  [cm-1]   --> E    G_5 D_5       
     freq (   6-   6) =        490.3  [cm-1]   --> B_2  G_4 D_2'      

     Calculation of q =    0.7500000  -0.2500000   0.7500000

     Parallelization info
     --------------------
     sticks:   dense  smooth     PW     G-vecs:    dense   smooth      PW
     Min          63      63     27                  682      682     181
     Max          64      64     28                  686      686     182
     Sum         253     253    109                 2733     2733     725

     Using Slab Decomposition


     Title: 
     Phonons on a uniform q-grid                                                


     bravais-lattice index     =            2
     lattice parameter (alat)  =      10.2000  a.u.
     unit-cell volume          =     265.3020 (a.u.)^3
     number of atoms/cell      =            2
     number of atomic types    =            1
     number of electrons       =         8.00
     number of Kohn-Sham states=            4
     kinetic-energy cutoff     =      18.0000  Ry
     charge density cutoff     =      72.0000  Ry
     Exchange-correlation= PZ
                           (   1   1   0   0   0   0   0)

     celldm(1)=  10.200000  celldm(2)=   0.000000  celldm(3)=   0.000000
     celldm(4)=   0.000000  celldm(5)=   0.000000  celldm(6)=   0.000000

     crystal axes: (cart. coord. in units of alat)
               a(1) = (  -0.500000   0.000000   0.500000 )  
               a(2) = (   0.000000   0.500000   0.500000 )  
               a(3) = (  -0.500000   0.500000   0.000000 )  

     reciprocal axes: (cart. coord. in units 2 pi/alat)
               b(1) = ( -1.000000 -1.000000  1.000000 )  
               b(2) = (  1.000000  1.000000  1.000000 )  
               b(3) = ( -1.000000  1.000000 -1.000000 )  


     PseudoPot. # 1 for Si read from file:
     ../../pseudo/Si.vbc.UPF
     MD5 check sum: bcd8ae23180a2f07cc8655fe7dcd9644
     Pseudo is Norm-conserving, Zval =  4.0
     Generated by new atomic code, or converted to UPF format
     Using radial grid of  431 points,  2 beta functions with: 
                l(1) =   0
                l(2) =   1

     atomic species   valence    mass     pseudopotential
        Si             4.00    28.08550     Si( 1.00)

     48 Sym. Ops., with inversion, found



   Cartesian axes

     site n.     atom                  positions (alat units)
         1           Si  tau(   1) = (   0.0000000   0.0000000   0.0000000  )
         2           Si  tau(   2) = (   0.2500000   0.2500000   0.2500000  )

     number of k points=   288

     Number of k-points >= 100: set verbosity='high' to print them.

     Dense  grid:     2733 G-vectors     FFT dimensions: (  20,  20,  20)

     Estimated max dynamical RAM per process >       0.36 MB

     Estimated total dynamical RAM >       1.45 MB

     The potential is recalculated from file :
     ./tmp/_ph0/Si.save/charge-density

     Starting wfcs are    8 atomic wfcs

     Band Structure Calculation
     Davidson diagonalization with overlap

     ethr =  1.25E-10,  avg # of iterations = 11.6

     total cpu time spent up to now is        1.7 secs

     End of band structure calculation

     Number of k-points >= 100: set verbosity='high' to print the bands.

     highest occupied level (ev):     5.9568

     Writing config to output data dir ./tmp/_ph0/Si.save/

     Phonons on a uniform q-grid                                                

     bravais-lattice index     =            2
     lattice parameter (alat)  =      10.2000  a.u.
     unit-cell volume          =     265.3020 (a.u.)^3
     number of atoms/cell      =            2
     number of atomic types    =            1
     kinetic-energy cut-off    =      18.0000  Ry
     charge density cut-off    =      72.0000  Ry
     convergence threshold     =      1.0E-14
     beta                      =       0.7000
     number of iterations used =            4
     Exchange-correlation= PZ
                           (   1   1   0   0   0   0   0)


     celldm(1)=   10.20000  celldm(2)=    0.00000  celldm(3)=    0.00000
     celldm(4)=    0.00000  celldm(5)=    0.00000  celldm(6)=    0.00000

     crystal axes: (cart. coord. in units of alat)
               a(1) = ( -0.5000  0.0000  0.5000 )  
               a(2) = (  0.0000  0.5000  0.5000 )  
               a(3) = ( -0.5000  0.5000  0.0000 )  

     reciprocal axes: (cart. coord. in units 2 pi/alat)
               b(1) = ( -1.0000 -1.0000  1.0000 )  
               b(2) = (  1.0000  1.0000  1.0000 )  
               b(3) = ( -1.0000  1.0000 -1.0000 )  


     Atoms inside the unit cell: 

     Cartesian axes

     site n.  atom      mass           positions (alat units)
        1     Si  28.0855   tau(    1) = (    0.00000    0.00000    0.00000  )
        2     Si  28.0855   tau(    2) = (    0.25000    0.25000    0.25000  )

     Computing dynamical matrix for 
                    q = (   0.7500000  -0.2500000   0.7500000 )

      2 Sym.Ops. (no q -> -q+G )


     G cutoff =  189.7462  (    683 G-vectors)     FFT grid: ( 20, 20, 20)
     number of k points=   288

     PseudoPot. # 1 for Si read from file:
     ../../pseudo/Si.vbc.UPF
     MD5 check sum: bcd8ae23180a2f07cc8655fe7dcd9644
     Pseudo is Norm-conserving, Zval =  4.0
     Generated by new atomic code, or converted to UPF format
     Using radial grid of  431 points,  2 beta functions with: 
                l(1) =   0
                l(2) =   1

     Mode symmetry, C_s (m)     point group:


     Atomic displacements:
     There are    6 irreducible representations

     Representation     1      1 modes -  To be done

     Representation     2      1 modes -  To be done

     Representation     3      1 modes -  To be done

     Representation     4      1 modes -  To be done

     Representation     5      1 modes -  To be done

     Representation     6      1 modes -  To be done



     Alpha used in Ewald sum =   0.7000
     PHONON       :     11.19s CPU     12.76s WALL



     Representation #   1 mode #   1

     Self-consistent Calculation

      iter #   1 total cpu time :    13.0 secs   av.it.:   5.5
      thresh= 1.000E-02 alpha_mix =  0.700 |ddv_scf|^2 =  1.364E-04

      iter #   2 total cpu time :    13.2 secs   av.it.:   8.2
      thresh= 1.168E-03 alpha_mix =  0.700 |ddv_scf|^2 =  3.919E-04

      iter #   3 total cpu time :    13.5 secs   av.it.:   7.1
      thresh= 1.980E-03 alpha_mix =  0.700 |ddv_scf|^2 =  1.494E-06

      iter #   4 total cpu time :    13.8 secs   av.it.:   7.7
      thresh= 1.222E-04 alpha_mix =  0.700 |ddv_scf|^2 =  6.162E-09

      iter #   5 total cpu time :    14.1 secs   av.it.:   8.1
      thresh= 7.850E-06 alpha_mix =  0.700 |ddv_scf|^2 =  5.845E-10

      iter #   6 total cpu time :    14.3 secs   av.it.:   8.1
      thresh= 2.418E-06 alpha_mix =  0.700 |ddv_scf|^2 =  2.457E-11

      iter #   7 total cpu time :    14.6 secs   av.it.:   8.2
      thresh= 4.957E-07 alpha_mix =  0.700 |ddv_scf|^2 =  2.486E-12

      iter #   8 total cpu time :    14.8 secs   av.it.:   8.2
      thresh= 1.577E-07 alpha_mix =  0.700 |ddv_scf|^2 =  2.233E-12

      iter #   9 total cpu time :    15.1 secs   av.it.:   7.3
      thresh= 1.494E-07 alpha_mix =  0.700 |ddv_scf|^2 =  2.230E-13

      iter #  10 total cpu time :    15.4 secs   av.it.:   7.8
      thresh= 4.722E-08 alpha_mix =  0.700 |ddv_scf|^2 =  7.895E-14

      iter #  11 total cpu time :    15.6 secs   av.it.:   7.5
      thresh= 2.810E-08 alpha_mix =  0.700 |ddv_scf|^2 =  2.257E-15

     End of self-consistent calculation

     Convergence has been achieved 


     Representation #   2 mode #   2

     Self-consistent Calculation

      iter #   1 total cpu time :    15.8 secs   av.it.:   5.4
      thresh= 1.000E-02 alpha_mix =  0.700 |ddv_scf|^2 =  8.339E-05

      iter #   2 total cpu time :    16.1 secs   av.it.:   8.2
      thresh= 9.132E-04 alpha_mix =  0.700 |ddv_scf|^2 =  2.327E-04

      iter #   3 total cpu time :    16.3 secs   av.it.:   7.1
      thresh= 1.526E-03 alpha_mix =  0.700 |ddv_scf|^2 =  8.270E-07

      iter #   4 total cpu time :    16.6 secs   av.it.:   7.9
      thresh= 9.094E-05 alpha_mix =  0.700 |ddv_scf|^2 =  6.126E-09

      iter #   5 total cpu time :    16.9 secs   av.it.:   8.0
      thresh= 7.827E-06 alpha_mix =  0.700 |ddv_scf|^2 =  9.599E-10

      iter #   6 total cpu time :    17.1 secs   av.it.:   7.9
      thresh= 3.098E-06 alpha_mix =  0.700 |ddv_scf|^2 =  3.528E-11

      iter #   7 total cpu time :    17.4 secs   av.it.:   8.2
      thresh= 5.940E-07 alpha_mix =  0.700 |ddv_scf|^2 =  2.664E-12

      iter #   8 total cpu time :    17.6 secs   av.it.:   8.1
      thresh= 1.632E-07 alpha_mix =  0.700 |ddv_scf|^2 =  7.041E-13

      iter #   9 total cpu time :    17.9 secs   av.it.:   7.4
      thresh= 8.391E-08 alpha_mix =  0.700 |ddv_scf|^2 =  2.610E-13

      iter #  10 total cpu time :    18.2 secs   av.it.:   7.7
      thresh= 5.109E-08 alpha_mix =  0.700 |ddv_scf|^2 =  8.974E-14

      iter #  11 total cpu time :    18.4 secs   av.it.:   7.4
      thresh= 2.996E-08 alpha_mix =  0.700 |ddv_scf|^2 =  5.797E-16

     End of self-consistent calculation

     Convergence has been achieved 


     Representation #   3 mode #   3

     Self-consistent Calculation

      iter #   1 total cpu time :    18.6 secs   av.it.:   5.4
      thresh= 1.000E-02 alpha_mix =  0.700 |ddv_scf|^2 =  7.901E-05

      iter #   2 total cpu time :    18.9 secs   av.it.:   8.3
      thresh= 8.888E-04 alpha_mix =  0.700 |ddv_scf|^2 =  2.050E-04

      iter #   3 total cpu time :    19.1 secs   av.it.:   7.2
      thresh= 1.432E-03 alpha_mix =  0.700 |ddv_scf|^2 =  1.916E-06

      iter #   4 total cpu time :    19.4 secs   av.it.:   7.6
      thresh= 1.384E-04 alpha_mix =  0.700 |ddv_scf|^2 =  4.771E-09

      iter #   5 total cpu time :    19.7 secs   av.it.:   8.2
      thresh= 6.907E-06 alpha_mix =  0.700 |ddv_scf|^2 =  5.145E-10

      iter #   6 total cpu time :    19.9 secs   av.it.:   8.0
[...]
        k(   49) = (   0.8750000   0.3750000   0.1250000), wk =   0.0625000
        k(   50) = (   0.3750000  -0.6250000   0.1250000), wk =   0.0000000
        k(   51) = (  -0.1250000  -0.3750000   0.8750000), wk =   0.0625000
        k(   52) = (  -0.6250000  -1.3750000   0.8750000), wk =   0.0000000
        k(   53) = (   0.3750000   0.8750000   0.1250000), wk =   0.0625000
        k(   54) = (  -0.1250000  -0.1250000   0.1250000), wk =   0.0000000
        k(   55) = (  -0.3750000   0.8750000  -0.1250000), wk =   0.0625000
        k(   56) = (  -0.8750000  -0.1250000  -0.1250000), wk =   0.0000000
        k(   57) = (  -0.6250000  -0.6250000  -0.1250000), wk =   0.0625000
        k(   58) = (  -1.1250000  -1.6250000  -0.1250000), wk =   0.0000000
        k(   59) = (   0.6250000   0.6250000   0.1250000), wk =   0.0625000
        k(   60) = (   0.1250000  -0.3750000   0.1250000), wk =   0.0000000
        k(   61) = (  -0.6250000  -0.3750000  -0.3750000), wk =   0.0625000
        k(   62) = (  -1.1250000  -1.3750000  -0.3750000), wk =   0.0000000
        k(   63) = (  -0.3750000  -0.3750000   0.6250000), wk =   0.0625000
        k(   64) = (  -0.8750000  -1.3750000   0.6250000), wk =   0.0000000

     Dense  grid:     2733 G-vectors     FFT dimensions: (  20,  20,  20)

     Estimated max dynamical RAM per process >       0.36 MB

     Estimated total dynamical RAM >       1.45 MB

     The potential is recalculated from file :
     ./tmp/_ph0/Si.save/charge-density

     Starting wfcs are    8 atomic wfcs

     Band Structure Calculation
     Davidson diagonalization with overlap

     ethr =  1.25E-10,  avg # of iterations = 11.6

     total cpu time spent up to now is        3.1 secs

     End of band structure calculation

          k = 0.1250 0.1250 0.1250 (   335 PWs)   bands (ev):

    -5.6039   4.6467   5.9568   5.9568

          k =-0.3750-0.8750 0.1250 (   347 PWs)   bands (ev):

    -2.2719  -0.7033   2.0783   3.2106

          k = 0.1250 0.1250 0.3750 (   338 PWs)   bands (ev):

    -5.0584   3.0175   4.9012   4.9909

          k =-0.3750-0.8750 0.3750 (   344 PWs)   bands (ev):

    -2.8220  -0.4390   2.1614   4.3230

          k = 0.1250 0.1250 0.6250 (   337 PWs)   bands (ev):

    -3.9883   1.3106   3.5165   3.9919

          k =-0.3750-0.8750 0.6250 (   340 PWs)   bands (ev):

    -3.5491   0.3750   2.8565   4.2745

          k = 0.1250 0.1250 0.8750 (   343 PWs)   bands (ev):

    -2.4615  -0.5936   2.7226   3.5069

          k =-0.3750-0.8750 0.8750 (   337 PWs)   bands (ev):

    -3.9883   1.3106   3.5165   3.9919

          k = 0.1250 0.3750 0.3750 (   341 PWs)   bands (ev):

    -4.5395   1.5909   3.8905   5.4637

          k =-0.3750-0.6250 0.3750 (   343 PWs)   bands (ev):

    -3.3347  -0.5842   3.9340   4.6556

          k = 0.1250 0.3750 0.6250 (   340 PWs)   bands (ev):

    -3.5491   0.3750   2.8565   4.2745

          k =-0.3750-0.6250 0.6250 (   343 PWs)   bands (ev):

    -3.3347  -0.5842   3.9340   4.6556

          k = 0.1250 0.3750 0.8750 (   347 PWs)   bands (ev):

    -2.2719  -0.7033   2.0783   3.2106

          k =-0.3750-0.6250 0.8750 (   340 PWs)   bands (ev):

    -3.5491   0.3750   2.8565   4.2745

          k = 0.1250 0.6250 0.6250 (   344 PWs)   bands (ev):

    -2.8220  -0.4390   2.1614   4.3230

          k =-0.3750-0.3750 0.6250 (   343 PWs)   bands (ev):

    -3.3347  -0.5842   3.9340   4.6556

          k = 0.3750 0.3750 0.3750 (   350 PWs)   bands (ev):

    -4.0849   0.2304   5.1432   5.1432

          k =-0.1250-0.6250 0.3750 (   340 PWs)   bands (ev):

    -3.5491   0.3750   2.8565   4.2745

          k = 0.3750 0.3750 0.6250 (   343 PWs)   bands (ev):

    -3.3347  -0.5842   3.9340   4.6556

          k =-0.1250-0.6250 0.6250 (   344 PWs)   bands (ev):

    -2.8220  -0.4390   2.1614   4.3230

          k =-0.3750-0.1250-0.1250 (   338 PWs)   bands (ev):

    -5.0584   3.0175   4.9012   4.9909

          k =-0.8750-1.1250-0.1250 (   343 PWs)   bands (ev):

    -2.4615  -0.5936   2.7226   3.5069

          k =-0.1250-0.1250 0.3750 (   338 PWs)   bands (ev):

    -5.0584   3.0175   4.9012   4.9909

          k =-0.6250-1.1250 0.3750 (   340 PWs)   bands (ev):

    -3.5491   0.3750   2.8565   4.2745

          k =-0.6250-0.1250-0.1250 (   337 PWs)   bands (ev):

    -3.9883   1.3106   3.5165   3.9919

          k =-1.1250-1.1250-0.1250 (   343 PWs)   bands (ev):

    -2.4615  -0.5936   2.7226   3.5069

          k =-0.1250-0.1250 0.6250 (   337 PWs)   bands (ev):

    -3.9883   1.3106   3.5165   3.9919

          k =-0.6250-1.1250 0.6250 (   341 PWs)   bands (ev):

    -4.5395   1.5909   3.8905   5.4637

          k =-0.8750-0.1250-0.1250 (   343 PWs)   bands (ev):

    -2.4615  -0.5936   2.7226   3.5069

          k =-1.3750-1.1250-0.1250 (   347 PWs)   bands (ev):

    -2.2719  -0.7033   2.0783   3.2106

          k =-0.1250-0.1250 0.8750 (   343 PWs)   bands (ev):

    -2.4615  -0.5936   2.7226   3.5069

          k =-0.6250-1.1250 0.8750 (   338 PWs)   bands (ev):

    -5.0584   3.0175   4.9012   4.9909

          k =-0.3750-0.3750-0.1250 (   341 PWs)   bands (ev):

    -4.5395   1.5909   3.8905   5.4637

          k =-0.8750-1.3750-0.1250 (   347 PWs)   bands (ev):

    -2.2719  -0.7033   2.0783   3.2106

          k = 0.3750 0.3750 0.1250 (   341 PWs)   bands (ev):

    -4.5395   1.5909   3.8905   5.4637

          k =-0.1250-0.6250 0.1250 (   337 PWs)   bands (ev):

    -3.9883   1.3106   3.5165   3.9919

          k =-0.6250-0.3750-0.1250 (   340 PWs)   bands (ev):

    -3.5491   0.3750   2.8565   4.2745

          k =-1.1250-1.3750-0.1250 (   347 PWs)   bands (ev):

    -2.2719  -0.7033   2.0783   3.2106

          k = 0.6250 0.3750 0.1250 (   340 PWs)   bands (ev):

    -3.5491   0.3750   2.8565   4.2745

          k = 0.1250-0.6250 0.1250 (   337 PWs)   bands (ev):

    -3.9883   1.3106   3.5165   3.9919

          k =-0.1250-0.3750 0.6250 (   340 PWs)   bands (ev):

    -3.5491   0.3750   2.8565   4.2745

          k =-0.6250-1.3750 0.6250 (   350 PWs)   bands (ev):

    -4.0849   0.2304   5.1432   5.1432

          k = 0.3750 0.6250 0.1250 (   340 PWs)   bands (ev):

    -3.5491   0.3750   2.8565   4.2745

          k =-0.1250-0.3750 0.1250 (   338 PWs)   bands (ev):

    -5.0584   3.0175   4.9012   4.9909

          k =-0.3750 0.6250-0.1250 (   340 PWs)   bands (ev):

    -3.5491   0.3750   2.8565   4.2745

          k =-0.8750-0.3750-0.1250 (   347 PWs)   bands (ev):

    -2.2719  -0.7033   2.0783   3.2106

          k =-0.8750-0.3750-0.1250 (   347 PWs)   bands (ev):

    -2.2719  -0.7033   2.0783   3.2106

          k =-1.3750-1.3750-0.1250 (   344 PWs)   bands (ev):

    -2.8220  -0.4390   2.1614   4.3230

          k = 0.8750 0.3750 0.1250 (   347 PWs)   bands (ev):

    -2.2719  -0.7033   2.0783   3.2106

          k = 0.3750-0.6250 0.1250 (   340 PWs)   bands (ev):

    -3.5491   0.3750   2.8565   4.2745

          k =-0.1250-0.3750 0.8750 (   347 PWs)   bands (ev):

    -2.2719  -0.7033   2.0783   3.2106

          k =-0.6250-1.3750 0.8750 (   341 PWs)   bands (ev):

    -4.5395   1.5909   3.8905   5.4637

          k = 0.3750 0.8750 0.1250 (   347 PWs)   bands (ev):

    -2.2719  -0.7033   2.0783   3.2106

          k =-0.1250-0.1250 0.1250 (   335 PWs)   bands (ev):

    -5.6039   4.6467   5.9568   5.9568

          k =-0.3750 0.8750-0.1250 (   347 PWs)   bands (ev):

    -2.2719  -0.7033   2.0783   3.2106

          k =-0.8750-0.1250-0.1250 (   343 PWs)   bands (ev):

    -2.4615  -0.5936   2.7226   3.5069

          k =-0.6250-0.6250-0.1250 (   344 PWs)   bands (ev):

    -2.8220  -0.4390   2.1614   4.3230

          k =-1.1250-1.6250-0.1250 (   347 PWs)   bands (ev):

    -2.2719  -0.7033   2.0783   3.2106

          k = 0.6250 0.6250 0.1250 (   344 PWs)   bands (ev):

    -2.8220  -0.4390   2.1614   4.3230

          k = 0.1250-0.3750 0.1250 (   338 PWs)   bands (ev):

    -5.0584   3.0175   4.9012   4.9909

          k =-0.6250-0.3750-0.3750 (   343 PWs)   bands (ev):

    -3.3347  -0.5842   3.9340   4.6556

          k =-1.1250-1.3750-0.3750 (   340 PWs)   bands (ev):

    -3.5491   0.3750   2.8565   4.2745

          k =-0.3750-0.3750 0.6250 (   343 PWs)   bands (ev):

    -3.3347  -0.5842   3.9340   4.6556

          k =-0.8750-1.3750 0.6250 (   341 PWs)   bands (ev):

    -4.5395   1.5909   3.8905   5.4637

     highest occupied level (ev):     5.9568

     Writing config to output data dir ./tmp/_ph0/Si.save/

     Phonons on a uniform q-grid                                                

     bravais-lattice index     =            2
     lattice parameter (alat)  =      10.2000  a.u.
     unit-cell volume          =     265.3020 (a.u.)^3
     number of atoms/cell      =            2
     number of atomic types    =            1
     kinetic-energy cut-off    =      18.0000  Ry
     charge density cut-off    =      72.0000  Ry
     convergence threshold     =      1.0E-14
     beta                      =       0.7000
     number of iterations used =            4
     Exchange-correlation= PZ
                           (   1   1   0   0   0   0   0)


     celldm(1)=   10.20000  celldm(2)=    0.00000  celldm(3)=    0.00000
     celldm(4)=    0.00000  celldm(5)=    0.00000  celldm(6)=    0.00000

     crystal axes: (cart. coord. in units of alat)
               a(1) = ( -0.5000  0.0000  0.5000 )  
               a(2) = (  0.0000  0.5000  0.5000 )  
               a(3) = ( -0.5000  0.5000  0.0000 )  

     reciprocal axes: (cart. coord. in units 2 pi/alat)
               b(1) = ( -1.0000 -1.0000  1.0000 )  
               b(2) = (  1.0000  1.0000  1.0000 )  
               b(3) = ( -1.0000  1.0000 -1.0000 )  


     Atoms inside the unit cell: 

     Cartesian axes

     site n.  atom      mass           positions (alat units)
        1     Si  28.0855   tau(    1) = (    0.00000    0.00000    0.00000  )
        2     Si  28.0855   tau(    2) = (    0.25000    0.25000    0.25000  )

     Computing dynamical matrix for 
                    q = (  -0.5000000  -1.0000000   0.0000000 )

      8 Sym.Ops. (no q -> -q+G )


     G cutoff =  189.7462  (    683 G-vectors)     FFT grid: ( 20, 20, 20)
     number of k points=    64

     PseudoPot. # 1 for Si read from file:
     ../../pseudo/Si.vbc.UPF
     MD5 check sum: bcd8ae23180a2f07cc8655fe7dcd9644
     Pseudo is Norm-conserving, Zval =  4.0
     Generated by new atomic code, or converted to UPF format
     Using radial grid of  431 points,  2 beta functions with: 
                l(1) =   0
                l(2) =   1


     Atomic displacements:
     There are    3 irreducible representations

     Representation     1      2 modes -  To be done

     Representation     2      2 modes -  To be done

     Representation     3      2 modes -  To be done



     Alpha used in Ewald sum =   0.7000
     PHONON       :     38.80s CPU     44.15s WALL



     Representation #   1 modes #   1   2

     Self-consistent Calculation

      iter #   1 total cpu time :    44.3 secs   av.it.:   5.2
      thresh= 1.000E-02 alpha_mix =  0.700 |ddv_scf|^2 =  1.048E-05

      iter #   2 total cpu time :    44.4 secs   av.it.:   9.3
      thresh= 3.237E-04 alpha_mix =  0.700 |ddv_scf|^2 =  1.345E-05

      iter #   3 total cpu time :    44.6 secs   av.it.:   8.5
      thresh= 3.667E-04 alpha_mix =  0.700 |ddv_scf|^2 =  1.660E-09

      iter #   4 total cpu time :    44.7 secs   av.it.:   8.8
      thresh= 4.074E-06 alpha_mix =  0.700 |ddv_scf|^2 =  3.431E-11

      iter #   5 total cpu time :    44.9 secs   av.it.:   8.8
      thresh= 5.857E-07 alpha_mix =  0.700 |ddv_scf|^2 =  1.227E-13

      iter #   6 total cpu time :    45.1 secs   av.it.:   8.4
      thresh= 3.502E-08 alpha_mix =  0.700 |ddv_scf|^2 =  2.128E-15

     End of self-consistent calculation

     Convergence has been achieved 


     Representation #   2 modes #   3   4

     Self-consistent Calculation

      iter #   1 total cpu time :    45.2 secs   av.it.:   5.3
      thresh= 1.000E-02 alpha_mix =  0.700 |ddv_scf|^2 =  4.962E-06

      iter #   2 total cpu time :    45.3 secs   av.it.:   9.3
      thresh= 2.228E-04 alpha_mix =  0.700 |ddv_scf|^2 =  3.145E-06

      iter #   3 total cpu time :    45.5 secs   av.it.:   8.6
      thresh= 1.773E-04 alpha_mix =  0.700 |ddv_scf|^2 =  2.591E-10

      iter #   4 total cpu time :    45.6 secs   av.it.:   8.7
      thresh= 1.610E-06 alpha_mix =  0.700 |ddv_scf|^2 =  1.777E-11

      iter #   5 total cpu time :    45.8 secs   av.it.:   8.8
      thresh= 4.215E-07 alpha_mix =  0.700 |ddv_scf|^2 =  3.219E-14

      iter #   6 total cpu time :    45.9 secs   av.it.:   9.3
      thresh= 1.794E-08 alpha_mix =  0.700 |ddv_scf|^2 =  3.783E-16

     End of self-consistent calculation

     Convergence has been achieved 


     Representation #   3 modes #   5   6

     Self-consistent Calculation

      iter #   1 total cpu time :    46.1 secs   av.it.:   5.4
      thresh= 1.000E-02 alpha_mix =  0.700 |ddv_scf|^2 =  5.985E-06

      iter #   2 total cpu time :    46.2 secs   av.it.:   9.3
      thresh= 2.446E-04 alpha_mix =  0.700 |ddv_scf|^2 =  3.898E-06

      iter #   3 total cpu time :    46.4 secs   av.it.:   8.7
      thresh= 1.974E-04 alpha_mix =  0.700 |ddv_scf|^2 =  2.279E-10

      iter #   4 total cpu time :    46.5 secs   av.it.:   8.9
      thresh= 1.510E-06 alpha_mix =  0.700 |ddv_scf|^2 =  2.728E-11

      iter #   5 total cpu time :    46.7 secs   av.it.:   8.9
      thresh= 5.223E-07 alpha_mix =  0.700 |ddv_scf|^2 =  1.583E-14

      iter #   6 total cpu time :    46.8 secs   av.it.:   9.2
      thresh= 1.258E-08 alpha_mix =  0.700 |ddv_scf|^2 =  4.229E-16

     End of self-consistent calculation

     Convergence has been achieved 

     Number of q in the star =    6
     List of q in the star:
          1  -0.500000000  -1.000000000   0.000000000
          2   0.000000000   1.000000000   0.500000000
          3   0.000000000  -1.000000000  -0.500000000
          4   0.500000000   1.000000000   0.000000000
          5  -1.000000000  -0.500000000   0.000000000
          6   0.000000000  -0.500000000  -1.000000000

     Diagonalizing the dynamical matrix

     q = (   -0.500000000  -1.000000000   0.000000000 ) 

 **************************************************************************
     freq (    1) =       6.029584 [THz] =     201.125275 [cm-1]
     freq (    2) =       6.029584 [THz] =     201.125275 [cm-1]
     freq (    3) =      10.528795 [THz] =     351.202798 [cm-1]
     freq (    4) =      10.528795 [THz] =     351.202798 [cm-1]
     freq (    5) =      13.922317 [THz] =     464.398514 [cm-1]
     freq (    6) =      13.922317 [THz] =     464.398514 [cm-1]
 **************************************************************************

     init_run     :      0.04s CPU      0.05s WALL (       7 calls)
     electrons    :      2.78s CPU      3.02s WALL (       7 calls)

     Called by init_run:
     wfcinit      :      0.00s CPU      0.00s WALL (       7 calls)
     potinit      :      0.00s CPU      0.00s WALL (       7 calls)
     hinit0       :      0.02s CPU      0.03s WALL (       7 calls)

     Called by electrons:
     c_bands      :      2.78s CPU      3.01s WALL (       7 calls)
     v_of_rho     :      0.00s CPU      0.00s WALL (       8 calls)

     Called by c_bands:
     init_us_2    :      0.30s CPU      0.34s WALL (   21472 calls)
     init_us_2:cp :      0.28s CPU      0.32s WALL (   21472 calls)
     cegterg      :      2.26s CPU      2.46s WALL (     796 calls)

     Called by *egterg:
     cdiaghg      :      0.44s CPU      0.48s WALL (   10026 calls)
     h_psi        :     24.83s CPU     28.29s WALL (  177255 calls)
     g_psi        :      0.02s CPU      0.02s WALL (    9230 calls)

     Called by h_psi:
     h_psi:calbec :      1.99s CPU      2.26s WALL (  177255 calls)
     vloc_psi     :     21.05s CPU     23.97s WALL (  177255 calls)
     add_vuspsi   :      1.18s CPU      1.36s WALL (  177255 calls)

     General routines
     calbec       :      3.56s CPU      4.06s WALL (  357590 calls)
     fft          :      0.26s CPU      0.26s WALL (    1007 calls)
     ffts         :      0.08s CPU      0.10s WALL (    2700 calls)
     fftw         :     22.15s CPU     25.24s WALL ( 1575588 calls)
     davcio       :      0.69s CPU      0.80s WALL (   95572 calls)

     Parallel routines

     PHONON       :     41.13s CPU     46.83s WALL

     INITIALIZATION: 
     phq_setup    :      0.00s CPU      0.01s WALL (       8 calls)
     phq_init     :      0.11s CPU      0.11s WALL (       8 calls)

     phq_init     :      0.11s CPU      0.11s WALL (       8 calls)
     init_vloc    :      0.00s CPU      0.00s WALL (       8 calls)
     init_us_1    :      0.01s CPU      0.02s WALL (       8 calls)
     init_us_2    :      0.30s CPU      0.34s WALL (   21472 calls)

     DYNAMICAL MATRIX:
     dynmat0      :      0.06s CPU      0.06s WALL (       8 calls)
     dynmat_us    :      0.06s CPU      0.06s WALL (       8 calls)
     d2ionq       :      0.00s CPU      0.00s WALL (       8 calls)
     phqscf       :     37.49s CPU     42.87s WALL (       8 calls)
     dynmatrix    :      0.01s CPU      0.01s WALL (       8 calls)

     phqscf       :     37.49s CPU     42.87s WALL (       8 calls)
     solve_linter :     37.30s CPU     42.65s WALL (      32 calls)
     sth_kernel   :     36.20s CPU     41.39s WALL (     228 calls)
     h_prec       :      0.19s CPU      0.22s WALL (   15846 calls)
     apply_dpot_b :      2.35s CPU      2.69s WALL (   15994 calls)
     ortho        :      0.23s CPU      0.27s WALL (   18502 calls)
     cgsolve      :     30.10s CPU     34.41s WALL (   18502 calls)
     incdrhoscf   :      2.44s CPU      2.79s WALL (   18472 calls)
                                        0.00s GPU  (   18472 calls)
     dv_of_drho   :      0.10s CPU      0.10s WALL (     325 calls)
     mix_pot      :      0.08s CPU      0.09s WALL (     228 calls)
     drhodv       :      0.19s CPU      0.20s WALL (      32 calls)
     psymdvscf    :      0.58s CPU      0.62s WALL (     223 calls)

     dvqpsi_us    :      0.49s CPU      0.61s WALL (    2508 calls)
                                        0.00s GPU  (    2508 calls)
     dvqpsi_us_on :      0.07s CPU      0.08s WALL (    2508 calls)

     add_vuspsi   :      1.18s CPU      1.36s WALL (  177255 calls)


      General routines
     calbec       :      3.56s CPU      4.06s WALL (  357590 calls)
     fft          :      0.26s CPU      0.26s WALL (    1007 calls)
     ffts         :      0.08s CPU      0.10s WALL (    2700 calls)
     fftw         :     22.15s CPU     25.24s WALL ( 1575588 calls)
     davcio       :      0.69s CPU      0.80s WALL (   95572 calls)
     write_rec    :      0.07s CPU      0.08s WALL (     260 calls)

      Additional routines
     ch_psi       :     28.02s CPU     32.03s WALL (  166433 calls)
     last         :      4.22s CPU      4.81s WALL (  166433 calls)
     Hesh         :      0.16s CPU      0.18s WALL (  166433 calls)
     ch_psi_all_k :      3.81s CPU      4.35s WALL (  166433 calls)
                                        0.00s GPU  (  166433 calls)
     ch_psi_calbe :      1.75s CPU      2.00s WALL (  166433 calls)
                                        0.00s GPU  (  166433 calls)
     h_psi_bgrp   :     25.00s CPU     28.48s WALL (  177255 calls)
     h_psi        :     24.83s CPU     28.29s WALL (  177255 calls)
     h_psi:pot    :     24.56s CPU     27.98s WALL (  177255 calls)
     h_psi:calbec :      1.99s CPU      2.26s WALL (  177255 calls)
     s_psi_bgrp   :      0.21s CPU      0.24s WALL (  351368 calls)


     PHONON       :     41.13s CPU     46.83s WALL


   This run was terminated on:  11:26: 7  30May2023            

=------------------------------------------------------------------------------=
   JOB DONE.
=------------------------------------------------------------------------------=
