
     Program PWSCF v.7.2 starts on 24May2023 at 13:27:22 

     This program is part of the open-source Quantum ESPRESSO suite
     for quantum simulation of materials; please cite
         "P. Giannozzi et al., J. Phys.:Condens. Matter 21 395502 (2009);
         "P. Giannozzi et al., J. Phys.:Condens. Matter 29 465901 (2017);
         "P. Giannozzi et al., J. Chem. Phys. 152 154105 (2020);
          URL http://www.quantum-espresso.org", 
     in publications or presentations arising from this work. More details at
     http://www.quantum-espresso.org/quote

     Parallel version (MPI), running on     1 processors

     MPI processes distributed on     1 nodes
     378 MiB available memory on the printing compute node when the environment starts

     Waiting for input...
     Reading input from standard input

     Current dimensions of program PWSCF are:
     Max number of different atomic species (ntypx) = 10
     Max number of k-points (npk) =  40000
     Max angular momentum in pseudopotentials (lmaxx) =  4
     Message from routine volume:
     axis vectors are left-handed
     file O.pbesol-n-kjpaw_psl.0.1.UPF: wavefunction(s)  2P renormalized
     Message from routine setup:
     using ibrav=0 with symmetry is DISCOURAGED, use correct ibrav instead

     Subspace diagonalization in iterative solution of the eigenvalue problem:
     a serial algorithm will be used


     G-vector sticks info
     --------------------
     sticks:   dense  smooth     PW     G-vecs:    dense   smooth      PW
     Sum        1167     587    195                18569     6541    1269

     Using Slab Decomposition



     bravais-lattice index     =            0
     lattice parameter (alat)  =       8.0000  a.u.
     unit-cell volume          =     235.7543 (a.u.)^3
     number of atoms/cell      =            4
     number of atomic types    =            3
     number of electrons       =        46.00
     number of Kohn-Sham states=           40
     kinetic-energy cutoff     =      35.0000  Ry
     charge density cutoff     =     280.0000  Ry
     scf convergence threshold =      1.0E-10
     mixing beta               =       0.7000
     number of iterations used =            8  plain     mixing
     Exchange-correlation= SLA  PW   PSX  PSC
                           (   1   4  10   8   0   0   0)
     Hubbard projectors: ortho-atomic
     Hubbard parameters of DFT+U (Dudarev formulation) in eV:
     U(Co1-3d) =  6.8000
     U(Co2-3d) =  6.8000

     Internal variables: lda_plus_u =T, lda_plus_u_kind = 0

     celldm(1)=   8.000000  celldm(2)=   0.000000  celldm(3)=   0.000000
     celldm(4)=   0.000000  celldm(5)=   0.000000  celldm(6)=   0.000000

     crystal axes: (cart. coord. in units of alat)
               a(1) = (   0.570726   0.570726   1.031099 )  
               a(2) = (   0.570726   1.031099   0.570726 )  
               a(3) = (   1.031099   0.570726   0.570726 )  

     reciprocal axes: (cart. coord. in units 2 pi/alat)
               b(1) = ( -0.570621 -0.570621  1.601531 )  
               b(2) = ( -0.570621  1.601531 -0.570621 )  
               b(3) = (  1.601531 -0.570621 -0.570621 )  


     PseudoPot. # 1 for Co read from file:
     ../../pseudo/co_pbesol_v1.2.uspp.F.UPF
     MD5 check sum: 3b4cd4e7cc7df4da9fdede0fd33e2193
     Pseudo is Ultrasoft + core correction, Zval = 17.0
     Generated by new atomic code, or converted to UPF format
     Using radial grid of  863 points,  6 beta functions with: 
                l(1) =   0
                l(2) =   0
                l(3) =   1
                l(4) =   1
                l(5) =   2
                l(6) =   2
     Q(r) pseudized with  8 coefficients,  rinner =    1.200   1.200   1.200
                                                       1.200   1.200

     PseudoPot. # 2 for Co read from file:
     ../../pseudo/co_pbesol_v1.2.uspp.F.UPF
     MD5 check sum: 3b4cd4e7cc7df4da9fdede0fd33e2193
     Pseudo is Ultrasoft + core correction, Zval = 17.0
     Generated by new atomic code, or converted to UPF format
     Using radial grid of  863 points,  6 beta functions with: 
                l(1) =   0
                l(2) =   0
                l(3) =   1
                l(4) =   1
                l(5) =   2
                l(6) =   2
     Q(r) pseudized with  8 coefficients,  rinner =    1.200   1.200   1.200
                                                       1.200   1.200

     PseudoPot. # 3 for O  read from file:
     ../../pseudo/O.pbesol-n-kjpaw_psl.0.1.UPF
     MD5 check sum: 81d73d1479e654e5638b0319f0d6c2c7
     Pseudo is Projector augmented-wave + core cor, Zval =  6.0
     Generated using "atomic" code by A. Dal Corso  v.6.0 svn rev. 13079
     Shape of augmentation charge: BESSEL
     Using radial grid of 1095 points,  4 beta functions with: 
                l(1) =   0
                l(2) =   0
                l(3) =   1
                l(4) =   1
     Q(r) pseudized with 0 coefficients 


     atomic species   valence    mass     pseudopotential
        Co1           17.00    58.93319     Co( 1.00)
        Co2           17.00    58.93319     Co( 1.00)
        O              6.00    15.99900     O ( 1.00)

     Starting magnetic structure 
     atomic species   magnetization
        Co1          0.500
        Co2         -0.500
        O            0.000

     12 Sym. Ops., with inversion, found


                                    s                        frac. trans.

      isym =  1     identity                                     

 cryst.   s( 1) = (     1          0          0      )
                  (     0          1          0      )
                  (     0          0          1      )

 cart.    s( 1) = (  1.0000000  0.0000000  0.0000000 )
                  (  0.0000000  1.0000000  0.0000000 )
                  (  0.0000000  0.0000000  1.0000000 )


      isym =  2     180 deg rotation - cart. axis [1,-1,0]       

 cryst.   s( 2) = (    -1          0          0      )
                  (     0          0         -1      )
                  (     0         -1          0      )

 cart.    s( 2) = ( -0.0000000 -1.0000000 -0.0000000 )
                  ( -1.0000000 -0.0000000 -0.0000000 )
                  ( -0.0000000 -0.0000000 -1.0000000 )


      isym =  3     180 deg rotation - cart. axis [-1,0,1]       

 cryst.   s( 3) = (     0          0         -1      )
                  (     0         -1          0      )
                  (    -1          0          0      )

 cart.    s( 3) = ( -0.0000000 -0.0000000 -1.0000000 )
                  ( -0.0000000 -1.0000000 -0.0000000 )
                  ( -1.0000000 -0.0000000 -0.0000000 )


      isym =  4     180 deg rotation - cart. axis [0,1,-1]       

 cryst.   s( 4) = (     0         -1          0      )
                  (    -1          0          0      )
                  (     0          0         -1      )

 cart.    s( 4) = ( -1.0000000 -0.0000000 -0.0000000 )
                  ( -0.0000000 -0.0000000 -1.0000000 )
                  ( -0.0000000 -1.0000000 -0.0000000 )


      isym =  5     120 deg rotation - cart. axis [-1,-1,-1]     

 cryst.   s( 5) = (     0          1          0      )
                  (     0          0          1      )
                  (     1          0          0      )

 cart.    s( 5) = (  0.0000000  1.0000000  0.0000000 )
                  (  0.0000000  0.0000000  1.0000000 )
                  (  1.0000000  0.0000000  0.0000000 )


      isym =  6     120 deg rotation - cart. axis [1,1,1]        

 cryst.   s( 6) = (     0          0          1      )
                  (     1          0          0      )
                  (     0          1          0      )

 cart.    s( 6) = (  0.0000000  0.0000000  1.0000000 )
                  (  1.0000000  0.0000000  0.0000000 )
                  (  0.0000000  1.0000000  0.0000000 )


      isym =  7     inversion                                    

 cryst.   s( 7) = (    -1          0          0      )
                  (     0         -1          0      )
                  (     0          0         -1      )

 cart.    s( 7) = ( -1.0000000 -0.0000000 -0.0000000 )
                  ( -0.0000000 -1.0000000 -0.0000000 )
                  ( -0.0000000 -0.0000000 -1.0000000 )


      isym =  8     inv. 180 deg rotation - cart. axis [1,-1,0]  

 cryst.   s( 8) = (     1          0          0      )
                  (     0          0          1      )
                  (     0          1          0      )

 cart.    s( 8) = (  0.0000000  1.0000000  0.0000000 )
                  (  1.0000000  0.0000000  0.0000000 )
                  (  0.0000000  0.0000000  1.0000000 )


      isym =  9     inv. 180 deg rotation - cart. axis [-1,0,1]  

 cryst.   s( 9) = (     0          0          1      )
                  (     0          1          0      )
                  (     1          0          0      )

 cart.    s( 9) = (  0.0000000  0.0000000  1.0000000 )
                  (  0.0000000  1.0000000  0.0000000 )
                  (  1.0000000  0.0000000  0.0000000 )


      isym = 10     inv. 180 deg rotation - cart. axis [0,1,-1]  

 cryst.   s(10) = (     0          1          0      )
                  (     1          0          0      )
                  (     0          0          1      )

 cart.    s(10) = (  1.0000000  0.0000000  0.0000000 )
                  (  0.0000000  0.0000000  1.0000000 )
                  (  0.0000000  1.0000000  0.0000000 )


      isym = 11     inv. 120 deg rotation - cart. axis [-1,-1,-1]

 cryst.   s(11) = (     0         -1          0      )
                  (     0          0         -1      )
                  (    -1          0          0      )

 cart.    s(11) = ( -0.0000000 -1.0000000 -0.0000000 )
                  ( -0.0000000 -0.0000000 -1.0000000 )
                  ( -1.0000000 -0.0000000 -0.0000000 )


      isym = 12     inv. 120 deg rotation - cart. axis [1,1,1]   

 cryst.   s(12) = (     0          0         -1      )
                  (    -1          0          0      )
                  (     0         -1          0      )

 cart.    s(12) = ( -0.0000000 -0.0000000 -1.0000000 )
                  ( -1.0000000 -0.0000000 -0.0000000 )
                  ( -0.0000000 -1.0000000 -0.0000000 )


   Cartesian axes

     site n.     atom                  positions (alat units)
         1           Co1 tau(   1) = (   0.0000000   0.0000000   0.0000000  )
         2           Co2 tau(   2) = (   1.0862757   1.0862757   1.0862757  )
         3           O   tau(   3) = (   0.5431378   0.5431378   0.5431378  )
         4           O   tau(   4) = (   1.6294135   1.6294135   1.6294135  )

   Crystallographic axes

     site n.     atom                  positions (cryst. coord.)
         1           Co1 tau(   1) = (  0.0000000  0.0000000  0.0000000  )
         2           Co2 tau(   2) = (  0.5000000  0.5000000  0.5000000  )
         3           O   tau(   3) = (  0.2500000  0.2500000  0.2500000  )
         4           O   tau(   4) = (  0.7500000  0.7500000  0.7500000  )

     number of k points=     6  Marzari-Vanderbilt smearing, width (Ry)=  0.0200
                       cart. coord. in units 2pi/alat
        k(    1) = (   0.0000000   0.0000000   0.0000000), wk =   0.0370370
        k(    2) = (   0.5338435  -0.1902071  -0.1902071), wk =   0.2222222
        k(    3) = (   0.3436365   0.3436365  -0.3804141), wk =   0.2222222
        k(    4) = (  -0.7240506   0.7240506   0.0000000), wk =   0.2222222
        k(    5) = (   0.1534294   0.1534294   0.1534294), wk =   0.0740741
        k(    6) = (  -0.9142576   0.5338435   0.5338435), wk =   0.2222222

                       cryst. coord.
        k(    1) = (   0.0000000   0.0000000   0.0000000), wk =   0.0370370
        k(    2) = (   0.0000000   0.0000000   0.3333333), wk =   0.2222222
        k(    3) = (   0.0000000   0.3333333   0.3333333), wk =   0.2222222
        k(    4) = (  -0.0000000   0.3333333  -0.3333333), wk =   0.2222222
        k(    5) = (   0.3333333   0.3333333   0.3333333), wk =   0.0740741
        k(    6) = (   0.3333333   0.3333333  -0.3333333), wk =   0.2222222

     Dense  grid:    18569 G-vectors     FFT dimensions: (  60,  60,  60)

     Smooth grid:     6541 G-vectors     FFT dimensions: (  40,  40,  40)

     Dynamical RAM for                 wfc:       0.50 MB

     Dynamical RAM for     wfc (w. buffer):       6.54 MB

     Dynamical RAM for             U proj.:       0.13 MB

     Dynamical RAM for  U proj. (w. buff.):       1.63 MB

     Dynamical RAM for           str. fact:       0.85 MB

     Dynamical RAM for           local pot:       0.00 MB

     Dynamical RAM for          nlocal pot:       0.65 MB

     Dynamical RAM for                qrad:       4.03 MB

     Dynamical RAM for          rho,v,vnew:      11.59 MB

     Dynamical RAM for               rhoin:       3.86 MB

     Dynamical RAM for            rho*nmix:       9.07 MB

     Dynamical RAM for           G-vectors:       1.11 MB

     Dynamical RAM for          h,s,v(r/c):       0.29 MB

     Dynamical RAM for          <psi|beta>:       0.03 MB

     Dynamical RAM for                 psi:       1.01 MB

     Dynamical RAM for                hpsi:       1.01 MB

     Dynamical RAM for                spsi:       1.01 MB

     Dynamical RAM for      wfcinit/wfcrot:       1.04 MB

     Dynamical RAM for           addusdens:      53.55 MB

     Estimated static dynamical RAM per process >      41.29 MB

     Estimated max dynamical RAM per process >     103.91 MB

     Check: negative core charge=   -0.000041
     Generating pointlists ...
     new r_m :   0.2019 (alat units)  1.6154 (a.u.) for type    1
     new r_m :   0.2019 (alat units)  1.6154 (a.u.) for type    2
     new r_m :   0.2019 (alat units)  1.6154 (a.u.) for type    3

     Initial potential from superposition of free atoms

     starting charge      44.0000, renormalised to      46.0000

     HUBBARD ENERGY =    0.5997  (Ry)

     STARTING HUBBARD OCCUPATIONS:

     =================== HUBBARD OCCUPATIONS ===================
     ------------------------ ATOM    1 ------------------------
     Tr[ns(  1)] (up, down, total) =   5.00000  2.00000  7.00000
     Atomic magnetic moment for atom   1 =   3.00000
     SPIN  1
     eigenvalues:
       1.000  1.000  1.000  1.000  1.000
     eigenvectors (columns):
       1.000  0.000  0.000  0.000  0.000
       0.000  1.000  0.000  0.000  0.000
       0.000  0.000  1.000  0.000  0.000
       0.000  0.000  0.000  1.000  0.000
       0.000  0.000  0.000  0.000  1.000
     occupation matrix ns (before diag.):
       1.000  0.000  0.000  0.000  0.000
       0.000  1.000  0.000  0.000  0.000
       0.000  0.000  1.000  0.000  0.000
       0.000  0.000  0.000  1.000  0.000
       0.000  0.000  0.000  0.000  1.000
     SPIN  2
     eigenvalues:
       0.400  0.400  0.400  0.400  0.400
     eigenvectors (columns):
       1.000  0.000  0.000  0.000  0.000
       0.000  1.000  0.000  0.000  0.000
       0.000  0.000  1.000  0.000  0.000
       0.000  0.000  0.000  1.000  0.000
       0.000  0.000  0.000  0.000  1.000
     occupation matrix ns (before diag.):
       0.400  0.000  0.000  0.000  0.000
       0.000  0.400  0.000  0.000  0.000
       0.000  0.000  0.400  0.000  0.000
       0.000  0.000  0.000  0.400  0.000
       0.000  0.000  0.000  0.000  0.400
     ------------------------ ATOM    2 ------------------------
     Tr[ns(  2)] (up, down, total) =   2.00000  5.00000  7.00000
     Atomic magnetic moment for atom   2 =  -3.00000
     SPIN  1
     eigenvalues:
       0.400  0.400  0.400  0.400  0.400
     eigenvectors (columns):
       1.000  0.000  0.000  0.000  0.000
       0.000  1.000  0.000  0.000  0.000
       0.000  0.000  1.000  0.000  0.000
       0.000  0.000  0.000  1.000  0.000
       0.000  0.000  0.000  0.000  1.000
     occupation matrix ns (before diag.):
       0.400  0.000  0.000  0.000  0.000
       0.000  0.400  0.000  0.000  0.000
       0.000  0.000  0.400  0.000  0.000
       0.000  0.000  0.000  0.400  0.000
       0.000  0.000  0.000  0.000  0.400
     SPIN  2
     eigenvalues:
       1.000  1.000  1.000  1.000  1.000
     eigenvectors (columns):
       1.000  0.000  0.000  0.000  0.000
       0.000  1.000  0.000  0.000  0.000
       0.000  0.000  1.000  0.000  0.000
       0.000  0.000  0.000  1.000  0.000
       0.000  0.000  0.000  0.000  1.000
     occupation matrix ns (before diag.):
       1.000  0.000  0.000  0.000  0.000
       0.000  1.000  0.000  0.000  0.000
       0.000  0.000  1.000  0.000  0.000
       0.000  0.000  0.000  1.000  0.000
       0.000  0.000  0.000  0.000  1.000

     Number of occupied Hubbard levels =   14.0000

     Atomic wfc used for Hubbard projectors are orthogonalized

     Starting wfcs are   34 randomized atomic wfcs +    6 random wfcs
     Checking if some PAW data can be deallocated... 

     total cpu time spent up to now is        3.0 secs

     Self-consistent Calculation

     iteration #  1     ecut=    35.00 Ry     beta= 0.70
     Davidson diagonalization with overlap

---- Real-time Memory Report at c_bands before calling an iterative solver
           117 MiB given to the printing process from OS
             0 MiB allocation reported by mallinfo(arena+hblkhd)
           305 MiB available memory on the node where the printing process lives
------------------
     ethr =  1.00E-02,  avg # of iterations =  5.1

     =================== HUBBARD OCCUPATIONS ===================
     ------------------------ ATOM    1 ------------------------
     Tr[ns(  1)] (up, down, total) =   4.84556  0.67098  5.51654
     Atomic magnetic moment for atom   1 =   4.17458
     SPIN  1
     eigenvalues:
       0.956  0.956  0.966  0.984  0.984
     eigenvectors (columns):
      -0.134  0.032 -0.000 -0.508 -0.850
      -0.556 -0.588 -0.577 -0.055  0.098
      -0.231  0.775 -0.577  0.112 -0.002
      -0.032 -0.134  0.000  0.850 -0.508
      -0.787  0.187  0.577  0.058  0.096
     occupation matrix ns (before diag.):
       0.984 -0.002 -0.002  0.000 -0.003
      -0.002  0.959  0.003 -0.003 -0.003
      -0.002  0.003  0.959  0.003 -0.003
       0.000 -0.003  0.003  0.984 -0.000
      -0.003 -0.003 -0.003 -0.000  0.959
     SPIN  2
     eigenvalues:
       0.051  0.051  0.174  0.197  0.197
     eigenvectors (columns):
       0.495  0.858  0.000  0.130  0.033
       0.055 -0.095 -0.577  0.564 -0.580
      -0.110 -0.000 -0.577  0.220  0.779
      -0.858  0.495 -0.000  0.033 -0.130
      -0.055 -0.095  0.577  0.784  0.199
     occupation matrix ns (before diag.):
       0.054  0.008  0.008  0.000  0.016
       0.008  0.188 -0.007  0.014  0.007
       0.008 -0.007  0.188 -0.014  0.007
       0.000  0.014 -0.014  0.054 -0.000
       0.016  0.007  0.007 -0.000  0.188
     ------------------------ ATOM    2 ------------------------
     Tr[ns(  2)] (up, down, total) =   0.67104  4.84558  5.51662
     Atomic magnetic moment for atom   2 =  -4.17454
     SPIN  1
     eigenvalues:
       0.051  0.051  0.174  0.197  0.197
     eigenvectors (columns):
      -0.483 -0.865 -0.000 -0.130  0.035
      -0.056  0.094  0.577 -0.574 -0.570
       0.110  0.002  0.577 -0.207  0.782
       0.865 -0.483  0.000 -0.035 -0.130
       0.053  0.096 -0.577 -0.781  0.212
     occupation matrix ns (before diag.):
       0.054  0.008  0.008  0.000  0.016
       0.008  0.188 -0.007  0.014  0.007
       0.008 -0.007  0.188 -0.014  0.007
       0.000  0.014 -0.014  0.054 -0.000
       0.016  0.007  0.007 -0.000  0.188
     SPIN  2
     eigenvalues:
       0.956  0.956  0.966  0.984  0.984
     eigenvectors (columns):
      -0.132  0.037 -0.000 -0.486 -0.863
      -0.577 -0.567 -0.577 -0.057  0.097
      -0.203  0.783 -0.577  0.112  0.001
      -0.037 -0.132  0.000  0.863 -0.486
      -0.779  0.216  0.577  0.055  0.098
     occupation matrix ns (before diag.):
       0.984 -0.002 -0.002  0.000 -0.003
      -0.002  0.959  0.003 -0.003 -0.003
      -0.002  0.003  0.959  0.003 -0.003
       0.000 -0.003  0.003  0.984 -0.000
      -0.003 -0.003 -0.003 -0.000  0.959

     Number of occupied Hubbard levels =   11.0332

     HUBBARD ENERGY =    0.3531  (Ry)

     total cpu time spent up to now is        5.9 secs

     total energy              =    -671.09994705 Ry
     estimated scf accuracy    <      12.43475553 Ry

     total magnetization       =    -0.00 Bohr mag/cell
     absolute magnetization    =     8.69 Bohr mag/cell

     iteration #  2     ecut=    35.00 Ry     beta= 0.70
     Davidson diagonalization with overlap

---- Real-time Memory Report at c_bands before calling an iterative solver
           141 MiB given to the printing process from OS
             0 MiB allocation reported by mallinfo(arena+hblkhd)
           308 MiB available memory on the node where the printing process lives
------------------
     ethr =  1.00E-02,  avg # of iterations =  3.0

     =================== HUBBARD OCCUPATIONS ===================
     ------------------------ ATOM    1 ------------------------
     Tr[ns(  1)] (up, down, total) =   4.86900  4.88558  9.75459
     Atomic magnetic moment for atom   1 =  -0.01658
     SPIN  1
     eigenvalues:
       0.972  0.972  0.973  0.976  0.976
     eigenvectors (columns):
       0.226  0.072  0.000  0.304  0.923
      -0.170 -0.775 -0.577 -0.129  0.144
      -0.586  0.534 -0.577  0.190  0.040
      -0.072  0.226 -0.000 -0.923  0.304
      -0.756 -0.240  0.577  0.061  0.184
     occupation matrix ns (before diag.):
       0.975  0.000  0.000  0.000  0.001
       0.000  0.973  0.000  0.001 -0.000
       0.000  0.000  0.973 -0.001 -0.000
       0.000  0.001 -0.001  0.975 -0.000
       0.001 -0.000 -0.000 -0.000  0.973
     SPIN  2
     eigenvalues:
       0.976  0.976  0.977  0.979  0.979
     eigenvectors (columns):
       0.522  0.616 -0.000 -0.501  0.312
       0.162 -0.453  0.577 -0.582 -0.310
      -0.474  0.086  0.577  0.022  0.659
      -0.616  0.522  0.000 -0.312 -0.501
      -0.311 -0.367 -0.577 -0.560  0.349
     occupation matrix ns (before diag.):
       0.977  0.001  0.001  0.000  0.001
       0.001  0.977 -0.000  0.001  0.000
       0.001 -0.000  0.977 -0.001  0.000
       0.000  0.001 -0.001  0.977 -0.000
       0.001  0.000  0.000 -0.000  0.977
     ------------------------ ATOM    2 ------------------------
     Tr[ns(  2)] (up, down, total) =   4.88559  4.86902  9.75461
     Atomic magnetic moment for atom   2 =   0.01657
     SPIN  1
     eigenvalues:
       0.976  0.976  0.977  0.979  0.979
     eigenvectors (columns):
       0.524  0.614 -0.000 -0.487  0.333
       0.161 -0.454  0.577 -0.595 -0.285
      -0.474  0.087  0.577  0.051  0.657
      -0.614  0.524  0.000 -0.333 -0.487
      -0.313 -0.366 -0.577 -0.544  0.372
     occupation matrix ns (before diag.):
       0.977  0.001  0.001  0.000  0.001
       0.001  0.977 -0.000  0.001  0.000
       0.001 -0.000  0.977 -0.001  0.000
       0.000  0.001 -0.001  0.977 -0.000
       0.001  0.000  0.000 -0.000  0.977
     SPIN  2
     eigenvalues:
       0.972  0.972  0.973  0.976  0.976
     eigenvectors (columns):
       0.224  0.078  0.000  0.356  0.904
      -0.149 -0.779 -0.577 -0.121  0.152
      -0.600  0.518 -0.577  0.192  0.029
      -0.078  0.224 -0.000 -0.904  0.356
      -0.749 -0.261  0.577  0.071  0.180
     occupation matrix ns (before diag.):
       0.975  0.000  0.000  0.000  0.001
       0.000  0.973  0.000  0.001 -0.000
       0.000  0.000  0.973 -0.001 -0.000
       0.000  0.001 -0.001  0.975 -0.000
       0.001 -0.000 -0.000 -0.000  0.973

     Number of occupied Hubbard levels =   19.5092

     HUBBARD ENERGY =    0.5985  (Ry)

     total cpu time spent up to now is        8.6 secs

     total energy              =    -672.07641425 Ry
     estimated scf accuracy    <      59.83344036 Ry

     total magnetization       =    -0.00 Bohr mag/cell
     absolute magnetization    =     0.56 Bohr mag/cell

     iteration #  3     ecut=    35.00 Ry     beta= 0.70
     Davidson diagonalization with overlap

---- Real-time Memory Report at c_bands before calling an iterative solver
           144 MiB given to the printing process from OS
             0 MiB allocation reported by mallinfo(arena+hblkhd)
           308 MiB available memory on the node where the printing process lives
------------------
     ethr =  1.00E-02,  avg # of iterations =  2.0

     =================== HUBBARD OCCUPATIONS ===================
     ------------------------ ATOM    1 ------------------------
     Tr[ns(  1)] (up, down, total) =   4.97868  2.21947  7.19815
     Atomic magnetic moment for atom   1 =   2.75921
     SPIN  1
     eigenvalues:
       0.995  0.995  0.996  0.996  0.996
     eigenvectors (columns):
       0.261 -0.923  0.000  0.262 -0.107
      -0.161 -0.166  0.577 -0.105  0.776
       0.224 -0.057  0.577 -0.619 -0.479
      -0.923 -0.261  0.000 -0.107 -0.262
       0.063 -0.222 -0.577 -0.725  0.297
     occupation matrix ns (before diag.):
       0.995 -0.000 -0.000  0.000 -0.000
      -0.000  0.996 -0.000 -0.000  0.000
      -0.000 -0.000  0.996  0.000  0.000
       0.000 -0.000  0.000  0.995 -0.000
      -0.000  0.000  0.000 -0.000  0.996
     SPIN  2
     eigenvalues:
       0.133  0.133  0.563  0.695  0.695
     eigenvectors (columns):
       0.473  0.877  0.000  0.079  0.014
       0.034 -0.056 -0.577  0.523 -0.623
      -0.065 -0.002 -0.577  0.278  0.765
      -0.877  0.473 -0.000  0.014 -0.079
      -0.031 -0.057  0.577  0.801  0.141
     occupation matrix ns (before diag.):
       0.136  0.018  0.018  0.000  0.037
       0.018  0.649 -0.043  0.032  0.043
       0.018 -0.043  0.649 -0.032  0.043
       0.000  0.032 -0.032  0.136 -0.000
       0.037  0.043  0.043 -0.000  0.649
     ------------------------ ATOM    2 ------------------------
     Tr[ns(  2)] (up, down, total) =   2.21838  4.97868  7.19706
     Atomic magnetic moment for atom   2 =  -2.76030
     SPIN  1
     eigenvalues:
       0.133  0.133  0.563  0.695  0.695
     eigenvectors (columns):
      -0.520 -0.850  0.000  0.079  0.013
      -0.031  0.057 -0.577  0.514 -0.631
       0.065 -0.002 -0.577  0.290  0.761
       0.850 -0.520 -0.000  0.013 -0.079
       0.034  0.056  0.577  0.804  0.129
     occupation matrix ns (before diag.):
       0.136  0.018  0.018  0.000  0.037
       0.018  0.649 -0.043  0.032  0.043
       0.018 -0.043  0.649 -0.032  0.043
       0.000  0.032 -0.032  0.136 -0.000
       0.037  0.043  0.043 -0.000  0.649
     SPIN  2
     eigenvalues:
       0.995  0.995  0.996  0.996  0.996
     eigenvectors (columns):
       0.290 -0.914  0.000  0.260 -0.113
      -0.156 -0.171  0.577 -0.089  0.778
       0.226 -0.050  0.577 -0.629 -0.466
      -0.914 -0.290  0.000 -0.113 -0.260
       0.070 -0.220 -0.577 -0.718  0.312
     occupation matrix ns (before diag.):
       0.995 -0.000 -0.000  0.000 -0.000
      -0.000  0.996 -0.000 -0.000  0.000
      -0.000 -0.000  0.996  0.000  0.000
       0.000 -0.000  0.000  0.995 -0.000
      -0.000  0.000  0.000 -0.000  0.996

     Number of occupied Hubbard levels =   14.3952

     HUBBARD ENERGY =    0.5403  (Ry)

     total cpu time spent up to now is       11.3 secs

     total energy              =    -678.09817588 Ry
     estimated scf accuracy    <       0.47350071 Ry

     total magnetization       =    -0.00 Bohr mag/cell
     absolute magnetization    =     5.82 Bohr mag/cell

     iteration #  4     ecut=    35.00 Ry     beta= 0.70
     Davidson diagonalization with overlap

---- Real-time Memory Report at c_bands before calling an iterative solver
           145 MiB given to the printing process from OS
             0 MiB allocation reported by mallinfo(arena+hblkhd)
           282 MiB available memory on the node where the printing process lives
------------------
     ethr =  1.03E-03,  avg # of iterations =  1.8

     =================== HUBBARD OCCUPATIONS ===================
     ------------------------ ATOM    1 ------------------------
     Tr[ns(  1)] (up, down, total) =   4.96547  2.42082  7.38629
     Atomic magnetic moment for atom   1 =   2.54465
     SPIN  1
     eigenvalues:
       0.991  0.991  0.995  0.995  0.995
     eigenvectors (columns):
       0.460 -0.888  0.000 -0.013  0.001
      -0.006 -0.009 -0.577  0.456  0.677
       0.011 -0.000 -0.577  0.359 -0.733
      -0.888 -0.460 -0.000 -0.001 -0.013
       0.005 -0.010  0.577  0.815 -0.056
     occupation matrix ns (before diag.):
       0.991 -0.000 -0.000  0.000 -0.000
      -0.000  0.995 -0.000 -0.000  0.000
      -0.000 -0.000  0.995  0.000  0.000
       0.000 -0.000  0.000  0.991 -0.000
      -0.000  0.000  0.000 -0.000  0.995
     SPIN  2
     eigenvalues:
       0.170  0.170  0.373  0.854  0.854
     eigenvectors (columns):
      -0.529  0.847  0.000  0.056  0.010
      -0.022 -0.041 -0.577  0.527 -0.622
       0.046  0.002 -0.577  0.276  0.767
       0.847  0.529 -0.000  0.010 -0.056
       0.025 -0.039  0.577  0.802  0.145
     occupation matrix ns (before diag.):
       0.172  0.016  0.016  0.000  0.032
       0.016  0.692 -0.159  0.027  0.159
       0.016 -0.159  0.692 -0.027  0.159
       0.000  0.027 -0.027  0.172 -0.000
       0.032  0.159  0.159 -0.000  0.692
     ------------------------ ATOM    2 ------------------------
     Tr[ns(  2)] (up, down, total) =   2.44310  4.96549  7.40859
     Atomic magnetic moment for atom   2 =  -2.52240
     SPIN  1
     eigenvalues:
       0.171  0.171  0.379  0.861  0.861
     eigenvectors (columns):
       0.419 -0.906  0.000  0.057  0.011
       0.027  0.039 -0.577  0.535 -0.615
      -0.047  0.004 -0.577  0.265  0.771
      -0.906 -0.419 -0.000  0.011 -0.057
      -0.020  0.043  0.577  0.800  0.156
     occupation matrix ns (before diag.):
       0.173  0.016  0.016  0.000  0.033
       0.016  0.699 -0.160  0.028  0.160
       0.016 -0.160  0.699 -0.028  0.160
       0.000  0.028 -0.028  0.173 -0.000
       0.033  0.160  0.160 -0.000  0.699
     SPIN  2
     eigenvalues:
       0.991  0.991  0.995  0.995  0.995
     eigenvectors (columns):
       0.511 -0.859  0.000 -0.011  0.001
      -0.004 -0.008 -0.577  0.448  0.683
       0.009  0.000 -0.577  0.367 -0.729
      -0.859 -0.511 -0.000 -0.001 -0.011
       0.005 -0.008  0.577  0.815 -0.046
     occupation matrix ns (before diag.):
       0.991 -0.000 -0.000  0.000 -0.000
      -0.000  0.995 -0.000 -0.000  0.000
      -0.000 -0.000  0.995  0.000  0.000
       0.000 -0.000  0.000  0.991 -0.000
      -0.000  0.000  0.000 -0.000  0.995

     Number of occupied Hubbard levels =   14.7949

     HUBBARD ENERGY =    0.4448  (Ry)

     total cpu time spent up to now is       13.8 secs

     total energy              =    -678.23914737 Ry
     estimated scf accuracy    <       0.32215177 Ry

     total magnetization       =     0.02 Bohr mag/cell
     absolute magnetization    =     5.37 Bohr mag/cell

     iteration #  5     ecut=    35.00 Ry     beta= 0.70
     Davidson diagonalization with overlap

---- Real-time Memory Report at c_bands before calling an iterative solver
           146 MiB given to the printing process from OS
             0 MiB allocation reported by mallinfo(arena+hblkhd)
           285 MiB available memory on the node where the printing process lives
------------------
     ethr =  7.00E-04,  avg # of iterations =  1.3

     =================== HUBBARD OCCUPATIONS ===================
     ------------------------ ATOM    1 ------------------------
     Tr[ns(  1)] (up, down, total) =   4.96808  2.34807  7.31615
     Atomic magnetic moment for atom   1 =   2.62001
     SPIN  1
     eigenvalues:
       0.992  0.992  0.994  0.995  0.995
     eigenvectors (columns):
       0.235 -0.933 -0.000  0.257 -0.095
      -0.161 -0.156  0.577 -0.132  0.774
       0.215 -0.061  0.577 -0.605 -0.501
      -0.933 -0.235  0.000 -0.095 -0.257
       0.055 -0.217 -0.577 -0.736  0.273
     occupation matrix ns (before diag.):
       0.992 -0.000 -0.000  0.000 -0.001
      -0.000  0.994 -0.000 -0.000  0.000
      -0.000 -0.000  0.994  0.000  0.000
       0.000 -0.000  0.000  0.992 -0.000
      -0.001  0.000  0.000 -0.000  0.994
     SPIN  2
     eigenvalues:
       0.124  0.137  0.137  0.974  0.974
     eigenvectors (columns):
      -0.000 -0.390  0.919  0.047 -0.007
      -0.577 -0.023 -0.031  0.508  0.638
      -0.577  0.038 -0.005  0.299 -0.759
       0.000  0.919  0.390  0.007  0.047
       0.577  0.015 -0.035  0.807 -0.121
     occupation matrix ns (before diag.):
       0.139  0.016  0.016  0.000  0.032
       0.016  0.690 -0.283  0.028  0.283
       0.016 -0.283  0.690 -0.028  0.283
       0.000  0.028 -0.028  0.139 -0.000
       0.032  0.283  0.283 -0.000  0.690
     ------------------------ ATOM    2 ------------------------
     Tr[ns(  2)] (up, down, total) =   2.27423  4.96833  7.24256
     Atomic magnetic moment for atom   2 =  -2.69410
     SPIN  1
     eigenvalues:
       0.112  0.129  0.129  0.952  0.952
     eigenvectors (columns):
      -0.000 -0.390  0.920  0.042 -0.005
      -0.577 -0.021 -0.028  0.491  0.652
      -0.577  0.035 -0.004  0.319 -0.751
       0.000  0.920  0.390  0.005  0.042
       0.577  0.014 -0.032  0.810 -0.099
     occupation matrix ns (before diag.):
       0.130  0.014  0.014  0.000  0.029
       0.014  0.671 -0.279  0.025  0.279
       0.014 -0.279  0.671 -0.025  0.279
       0.000  0.025 -0.025  0.130 -0.000
       0.029  0.279  0.279 -0.000  0.671
     SPIN  2
     eigenvalues:
       0.992  0.992  0.994  0.995  0.995
     eigenvectors (columns):
      -0.421 -0.748  0.000  0.400 -0.321
      -0.419 -0.005  0.577  0.106  0.693
       0.213 -0.360  0.577 -0.653 -0.255
      -0.748  0.421  0.000 -0.321 -0.400
      -0.205 -0.365 -0.577 -0.547  0.438
     occupation matrix ns (before diag.):
       0.993 -0.000 -0.000  0.000 -0.001
      -0.000  0.994 -0.000 -0.001  0.000
      -0.000 -0.000  0.994  0.001  0.000
       0.000 -0.001  0.001  0.993 -0.000
      -0.001  0.000  0.000 -0.000  0.994

     Number of occupied Hubbard levels =   14.5587

     HUBBARD ENERGY =    0.3797  (Ry)

     total cpu time spent up to now is       16.0 secs

     total energy              =    -678.35889585 Ry
     estimated scf accuracy    <       0.13788155 Ry

     total magnetization       =    -0.08 Bohr mag/cell
     absolute magnetization    =     5.52 Bohr mag/cell

     iteration #  6     ecut=    35.00 Ry     beta= 0.70
     Davidson diagonalization with overlap

---- Real-time Memory Report at c_bands before calling an iterative solver
           146 MiB given to the printing process from OS
             0 MiB allocation reported by mallinfo(arena+hblkhd)
           306 MiB available memory on the node where the printing process lives
------------------
     ethr =  3.00E-04,  avg # of iterations =  1.0

     =================== HUBBARD OCCUPATIONS ===================
     ------------------------ ATOM    1 ------------------------
     Tr[ns(  1)] (up, down, total) =   4.96388  2.27126  7.23514
     Atomic magnetic moment for atom   1 =   2.69262
     SPIN  1
     eigenvalues:
       0.991  0.991  0.993  0.994  0.994
     eigenvectors (columns):
      -0.438 -0.694  0.000  0.447 -0.357
      -0.466  0.019  0.577  0.100  0.662
       0.217 -0.413  0.577 -0.624 -0.244
      -0.694  0.438 -0.000 -0.357 -0.447
      -0.249 -0.395 -0.577 -0.524  0.418
     occupation matrix ns (before diag.):
       0.992 -0.001 -0.001  0.000 -0.001
      -0.001  0.993  0.000 -0.001 -0.000
      -0.001  0.000  0.993  0.001 -0.000
       0.000 -0.001  0.001  0.992 -0.000
      -0.001 -0.000 -0.000 -0.000  0.993
     SPIN  2
     eigenvalues:
       0.072  0.126  0.126  0.974  0.974
     eigenvectors (columns):
      -0.000  0.573  0.819  0.031 -0.003
      -0.577  0.011 -0.023  0.484  0.657
      -0.577 -0.025  0.002  0.327 -0.748
       0.000 -0.819  0.573  0.003  0.031
       0.577 -0.015 -0.021  0.811 -0.090
     occupation matrix ns (before diag.):
       0.127  0.011  0.011  0.000  0.022
       0.011  0.673 -0.300  0.019  0.300
       0.011 -0.300  0.673 -0.019  0.300
       0.000  0.019 -0.019  0.127 -0.000
       0.022  0.300  0.300 -0.000  0.673
     ------------------------ ATOM    2 ------------------------
     Tr[ns(  2)] (up, down, total) =   2.32232  4.97099  7.29331
     Atomic magnetic moment for atom   2 =  -2.64867
     SPIN  1
     eigenvalues:
       0.083  0.144  0.144  0.976  0.976
     eigenvectors (columns):
      -0.000 -0.519  0.854  0.031 -0.004
      -0.577 -0.012 -0.022  0.491  0.652
      -0.577  0.025  0.001  0.319 -0.751
       0.000  0.854  0.519  0.004  0.031
       0.577  0.013 -0.022  0.810 -0.099
     occupation matrix ns (before diag.):
       0.144  0.011  0.011  0.000  0.021
       0.011  0.678 -0.297  0.018  0.297
       0.011 -0.297  0.678 -0.018  0.297
       0.000  0.018 -0.018  0.144 -0.000
       0.021  0.297  0.297 -0.000  0.678
     SPIN  2
     eigenvalues:
       0.993  0.993  0.994  0.995  0.995
     eigenvectors (columns):
      -0.556  0.493  0.000 -0.456 -0.490
      -0.519 -0.173  0.577 -0.177  0.580
       0.110  0.535  0.577  0.591 -0.136
      -0.493 -0.556 -0.000  0.490 -0.456
      -0.409  0.363 -0.577  0.414  0.444
     occupation matrix ns (before diag.):
       0.994 -0.001 -0.001  0.000 -0.001
      -0.001  0.994  0.000 -0.001 -0.000
      -0.001  0.000  0.994  0.001 -0.000
       0.000 -0.001  0.001  0.994 -0.000
      -0.001 -0.000 -0.000 -0.000  0.994

     Number of occupied Hubbard levels =   14.5284

     HUBBARD ENERGY =    0.2662  (Ry)

     total cpu time spent up to now is       18.2 secs

     WARNING: integrated charge=    46.00409400, expected=    46.00000000

     total energy              =    -678.40261962 Ry
     estimated scf accuracy    <       0.06997893 Ry

     total magnetization       =     0.00 Bohr mag/cell
     absolute magnetization    =     5.53 Bohr mag/cell

     iteration #  7     ecut=    35.00 Ry     beta= 0.70
     Davidson diagonalization with overlap

---- Real-time Memory Report at c_bands before calling an iterative solver
           146 MiB given to the printing process from OS
             0 MiB allocation reported by mallinfo(arena+hblkhd)
           306 MiB available memory on the node where the printing process lives
------------------
     ethr =  1.52E-04,  avg # of iterations =  2.3

     =================== HUBBARD OCCUPATIONS ===================
     ------------------------ ATOM    1 ------------------------
     Tr[ns(  1)] (up, down, total) =   4.97672  2.38397  7.36069
     Atomic magnetic moment for atom   1 =   2.59275
     SPIN  1
     eigenvalues:
       0.994  0.994  0.996  0.996  0.996
     eigenvectors (columns):
      -0.520 -0.363  0.000  0.505  0.585
      -0.572  0.267  0.577  0.171 -0.489
       0.054 -0.629  0.577 -0.509  0.097
      -0.363  0.520 -0.000 -0.585  0.505
      -0.517 -0.362 -0.577 -0.338 -0.392
     occupation matrix ns (before diag.):
       0.995 -0.000 -0.000  0.000 -0.001
      -0.000  0.995  0.000 -0.001 -0.000
      -0.000  0.000  0.995  0.001 -0.000
       0.000 -0.001  0.001  0.995 -0.000
      -0.001 -0.000 -0.000 -0.000  0.995
     SPIN  2
     eigenvalues:
       0.065  0.175  0.175  0.984  0.984
     eigenvectors (columns):
      -0.000  0.454  0.891  0.008 -0.001
      -0.577  0.004 -0.006  0.481  0.660
      -0.577 -0.007 -0.000  0.331 -0.747
       0.000 -0.891  0.454  0.001  0.008
       0.577 -0.003 -0.006  0.812 -0.087
     occupation matrix ns (before diag.):
       0.175  0.003  0.003  0.000  0.006
       0.003  0.678 -0.307  0.005  0.307
       0.003 -0.307  0.678 -0.005  0.307
       0.000  0.005 -0.005  0.175 -0.000
       0.006  0.307  0.307 -0.000  0.678
     ------------------------ ATOM    2 ------------------------
     Tr[ns(  2)] (up, down, total) =   2.21020  4.94938  7.15959
     Atomic magnetic moment for atom   2 =  -2.73918
     SPIN  1
     eigenvalues:
       0.043  0.109  0.109  0.975  0.975
     eigenvectors (columns):
      -0.000 -0.511  0.860  0.005 -0.000
      -0.577 -0.002 -0.004  0.469  0.668
      -0.577  0.004  0.000  0.344 -0.740
       0.000  0.860  0.511  0.000  0.005
       0.577  0.002 -0.004  0.813 -0.072
     occupation matrix ns (before diag.):
       0.109  0.002  0.002  0.000  0.004
       0.002  0.664 -0.311  0.003  0.311
       0.002 -0.311  0.664 -0.003  0.311
       0.000  0.003 -0.003  0.109 -0.000
       0.004  0.311  0.311 -0.000  0.664
     SPIN  2
     eigenvalues:
       0.987  0.987  0.992  0.992  0.992
     eigenvectors (columns):
       0.526  0.673  0.000 -0.408 -0.323
       0.421 -0.059  0.577 -0.102  0.690
      -0.159  0.394  0.577  0.648 -0.256
       0.673 -0.526 -0.000  0.323 -0.408
       0.262  0.335 -0.577  0.546  0.433
     occupation matrix ns (before diag.):
       0.988 -0.001 -0.001  0.000 -0.002
      -0.001  0.991  0.000 -0.002 -0.000
      -0.001  0.000  0.991  0.002 -0.000
       0.000 -0.002  0.002  0.988 -0.000
      -0.002 -0.000 -0.000 -0.000  0.991

     Number of occupied Hubbard levels =   14.5203

     HUBBARD ENERGY =    0.1517  (Ry)

     total cpu time spent up to now is       20.5 secs

     WARNING: integrated charge=    46.00615661, expected=    46.00000000

     total energy              =    -678.41179499 Ry
     estimated scf accuracy    <       0.11366858 Ry

     total magnetization       =    -0.00 Bohr mag/cell
     absolute magnetization    =     5.53 Bohr mag/cell

     iteration #  8     ecut=    35.00 Ry     beta= 0.70
     Davidson diagonalization with overlap

---- Real-time Memory Report at c_bands before calling an iterative solver
           147 MiB given to the printing process from OS
             0 MiB allocation reported by mallinfo(arena+hblkhd)
           305 MiB available memory on the node where the printing process lives
------------------
     ethr =  1.52E-04,  avg # of iterations =  2.0

     =================== HUBBARD OCCUPATIONS ===================
     ------------------------ ATOM    1 ------------------------
     Tr[ns(  1)] (up, down, total) =   4.96794  2.28223  7.25016
     Atomic magnetic moment for atom   1 =   2.68571
     SPIN  1
     eigenvalues:
       0.992  0.992  0.995  0.995  0.995
     eigenvectors (columns):
      -0.516 -0.394  0.000 -0.490  0.581
      -0.573  0.239  0.577 -0.180 -0.499
       0.080 -0.616  0.577  0.522  0.093
      -0.394  0.516 -0.000  0.581  0.490
      -0.493 -0.377 -0.577  0.342 -0.406
     occupation matrix ns (before diag.):
       0.994 -0.001 -0.001  0.000 -0.001
      -0.001  0.994  0.001 -0.001 -0.001
      -0.001  0.001  0.994  0.001 -0.001
       0.000 -0.001  0.001  0.994 -0.000
      -0.001 -0.001 -0.001 -0.000  0.994
     SPIN  2
     eigenvalues:
       0.039  0.139  0.139  0.983  0.983
     eigenvectors (columns):
      -0.000  0.470 -0.882 -0.017  0.001
      -0.577 -0.007 -0.012  0.443  0.686
      -0.577  0.014 -0.000  0.372 -0.727
       0.000 -0.882 -0.470 -0.001 -0.017
       0.577  0.006 -0.012  0.815 -0.041
     occupation matrix ns (before diag.):
       0.139 -0.006 -0.006  0.000 -0.012
      -0.006  0.668 -0.315 -0.010  0.315
      -0.006 -0.315  0.668  0.010  0.315
       0.000 -0.010  0.010  0.139 -0.000
      -0.012  0.315  0.315 -0.000  0.668
     ------------------------ ATOM    2 ------------------------
     Tr[ns(  2)] (up, down, total) =   2.26389  4.96518  7.22908
     Atomic magnetic moment for atom   2 =  -2.70129
     SPIN  1
     eigenvalues:
       0.038  0.131  0.131  0.983  0.983
     eigenvectors (columns):
      -0.000  0.498 -0.867 -0.016  0.001
      -0.577 -0.007 -0.011  0.447  0.683
      -0.577  0.013 -0.000  0.368 -0.729
       0.000 -0.867 -0.498 -0.001 -0.016
       0.577  0.007 -0.012  0.815 -0.046
     occupation matrix ns (before diag.):
       0.131 -0.006 -0.006  0.000 -0.011
      -0.006  0.667 -0.315 -0.010  0.315
      -0.006 -0.315  0.667  0.010  0.315
       0.000 -0.010  0.010  0.131 -0.000
      -0.011  0.315  0.315 -0.000  0.667
     SPIN  2
     eigenvalues:
       0.991  0.991  0.994  0.995  0.995
     eigenvectors (columns):
      -0.544 -0.397  0.000 -0.501  0.544
      -0.552  0.245  0.577 -0.164 -0.524
       0.064 -0.600  0.577  0.536  0.120
      -0.397  0.544 -0.000  0.544  0.501
      -0.488 -0.356 -0.577  0.372 -0.405
     occupation matrix ns (before diag.):
       0.993 -0.001 -0.001  0.000 -0.002
      -0.001  0.993  0.001 -0.001 -0.001
      -0.001  0.001  0.993  0.001 -0.001
       0.000 -0.001  0.001  0.993 -0.000
      -0.002 -0.001 -0.001 -0.000  0.993

     Number of occupied Hubbard levels =   14.4792

     HUBBARD ENERGY =    0.1781  (Ry)

     total cpu time spent up to now is       22.9 secs

     WARNING: integrated charge=    46.00110729, expected=    46.00000000

     total energy              =    -678.42959246 Ry
     estimated scf accuracy    <       0.00318693 Ry

     total magnetization       =    -0.00 Bohr mag/cell
     absolute magnetization    =     5.55 Bohr mag/cell

     iteration #  9     ecut=    35.00 Ry     beta= 0.70
     Davidson diagonalization with overlap

---- Real-time Memory Report at c_bands before calling an iterative solver
           147 MiB given to the printing process from OS
             0 MiB allocation reported by mallinfo(arena+hblkhd)
           292 MiB available memory on the node where the printing process lives
------------------
     ethr =  6.93E-06,  avg # of iterations =  3.5

     =================== HUBBARD OCCUPATIONS ===================
     ------------------------ ATOM    1 ------------------------
     Tr[ns(  1)] (up, down, total) =   4.96645  2.26982  7.23627
     Atomic magnetic moment for atom   1 =   2.69663
     SPIN  1
     eigenvalues:
       0.991  0.991  0.994  0.995  0.995
     eigenvectors (columns):
      -0.552 -0.372  0.000 -0.501  0.553
      -0.548  0.267  0.577 -0.166 -0.518
       0.043 -0.608  0.577  0.531  0.115
      -0.372  0.552 -0.000  0.553  0.501
      -0.505 -0.341 -0.577  0.365 -0.403
     occupation matrix ns (before diag.):
       0.993 -0.001 -0.001  0.000 -0.001
      -0.001  0.993  0.000 -0.001 -0.000
      -0.001  0.000  0.993  0.001 -0.000
       0.000 -0.001  0.001  0.993 -0.000
      -0.001 -0.000 -0.000 -0.000  0.993
     SPIN  2
     eigenvalues:
       0.040  0.132  0.132  0.982  0.982
     eigenvectors (columns):
      -0.000 -0.406 -0.914 -0.028  0.001
      -0.577  0.013 -0.018  0.432  0.693
      -0.577 -0.022 -0.002  0.384 -0.720
       0.000  0.914 -0.406 -0.001 -0.028
       0.577 -0.009 -0.021  0.816 -0.028
     occupation matrix ns (before diag.):
       0.133 -0.010 -0.010  0.000 -0.019
      -0.010  0.668 -0.314 -0.017  0.314
      -0.010 -0.314  0.668  0.017  0.314
       0.000 -0.017  0.017  0.133 -0.000
      -0.019  0.314  0.314 -0.000  0.668
     ------------------------ ATOM    2 ------------------------
     Tr[ns(  2)] (up, down, total) =   2.27332  4.96695  7.24026
     Atomic magnetic moment for atom   2 =  -2.69363
     SPIN  1
     eigenvalues:
       0.041  0.134  0.134  0.983  0.983
     eigenvectors (columns):
      -0.000 -0.362 -0.932 -0.027  0.001
      -0.577  0.014 -0.017  0.441  0.687
      -0.577 -0.022 -0.003  0.374 -0.725
       0.000  0.932 -0.362 -0.001 -0.027
       0.577 -0.008 -0.021  0.815 -0.039
     occupation matrix ns (before diag.):
       0.134 -0.009 -0.009  0.000 -0.019
      -0.009  0.668 -0.314 -0.016  0.314
      -0.009 -0.314  0.668  0.016  0.314
       0.000 -0.016  0.016  0.134 -0.000
      -0.019  0.314  0.314 -0.000  0.668
     SPIN  2
     eigenvalues:
       0.991  0.991  0.994  0.995  0.995
     eigenvectors (columns):
      -0.537 -0.381  0.000 -0.503  0.560
      -0.559  0.256  0.577 -0.166 -0.511
       0.057 -0.612  0.577  0.526  0.111
      -0.381  0.537 -0.000  0.560  0.503
      -0.501 -0.356 -0.577  0.360 -0.400
     occupation matrix ns (before diag.):
       0.993 -0.001 -0.001  0.000 -0.001
      -0.001  0.993  0.000 -0.001 -0.000
      -0.001  0.000  0.993  0.001 -0.000
       0.000 -0.001  0.001  0.993 -0.000
      -0.001 -0.000 -0.000 -0.000  0.993

     Number of occupied Hubbard levels =   14.4765

     HUBBARD ENERGY =    0.1844  (Ry)

     total cpu time spent up to now is       25.2 secs

     WARNING: integrated charge=    45.99597601, expected=    46.00000000

     total energy              =    -678.42956721 Ry
     estimated scf accuracy    <       0.00091921 Ry

     total magnetization       =     0.00 Bohr mag/cell
     absolute magnetization    =     5.55 Bohr mag/cell

     iteration # 10     ecut=    35.00 Ry     beta= 0.70
     Davidson diagonalization with overlap

---- Real-time Memory Report at c_bands before calling an iterative solver
           148 MiB given to the printing process from OS
             0 MiB allocation reported by mallinfo(arena+hblkhd)
           292 MiB available memory on the node where the printing process lives
------------------
     ethr =  2.00E-06,  avg # of iterations =  2.0

     =================== HUBBARD OCCUPATIONS ===================
     ------------------------ ATOM    1 ------------------------
     Tr[ns(  1)] (up, down, total) =   4.96605  2.26598  7.23204
     Atomic magnetic moment for atom   1 =   2.70007
     SPIN  1
     eigenvalues:
       0.991  0.991  0.994  0.995  0.995
     eigenvectors (columns):
      -0.503 -0.427  0.000  0.501  0.560
      -0.577  0.207  0.577  0.168 -0.512
       0.110 -0.603  0.577 -0.528  0.110
      -0.427  0.503 -0.000 -0.560  0.501
      -0.468 -0.397 -0.577 -0.359 -0.402
     occupation matrix ns (before diag.):
       0.993 -0.001 -0.001  0.000 -0.001
      -0.001  0.993  0.000 -0.001 -0.000
      -0.001  0.000  0.993  0.001 -0.000
       0.000 -0.001  0.001  0.993 -0.000
      -0.001 -0.000 -0.000 -0.000  0.993
     SPIN  2
     eigenvalues:
       0.041  0.130  0.130  0.983  0.983
     eigenvectors (columns):
       0.000  0.445  0.893  0.062  0.001
       0.577 -0.028  0.042 -0.401 -0.710
       0.577  0.050  0.003 -0.414  0.702
      -0.000 -0.893  0.445 -0.001  0.062
      -0.577  0.023  0.045 -0.815 -0.008
     occupation matrix ns (before diag.):
       0.133 -0.021 -0.021  0.000 -0.043
      -0.021  0.667 -0.313 -0.037  0.313
      -0.021 -0.313  0.667  0.037  0.313
       0.000 -0.037  0.037  0.133 -0.000
      -0.043  0.313  0.313 -0.000  0.667
     ------------------------ ATOM    2 ------------------------
     Tr[ns(  2)] (up, down, total) =   2.27315  4.96736  7.24052
     Atomic magnetic moment for atom   2 =  -2.69421
     SPIN  1
     eigenvalues:
       0.041  0.133  0.133  0.983  0.983
     eigenvectors (columns):
      -0.000  0.328  0.943 -0.062  0.002
      -0.577 -0.033  0.038  0.386 -0.718
      -0.577  0.050  0.009  0.428  0.693
       0.000 -0.943  0.328  0.002  0.062
       0.577  0.017  0.048  0.815 -0.024
     occupation matrix ns (before diag.):
       0.136 -0.021 -0.021  0.000 -0.043
      -0.021  0.667 -0.313 -0.037  0.313
      -0.021 -0.313  0.667  0.037  0.313
       0.000 -0.037  0.037  0.136 -0.000
      -0.043  0.313  0.313 -0.000  0.667
     SPIN  2
     eigenvalues:
       0.992  0.992  0.994  0.995  0.995
     eigenvectors (columns):
      -0.508 -0.415  0.000  0.508  0.558
      -0.576  0.218  0.577  0.163 -0.510
       0.099 -0.608  0.577 -0.523  0.114
      -0.415  0.508 -0.000 -0.558  0.508
      -0.477 -0.390 -0.577 -0.361 -0.396
     occupation matrix ns (before diag.):
       0.994 -0.001 -0.001  0.000 -0.001
      -0.001  0.993  0.000 -0.001 -0.000
      -0.001  0.000  0.993  0.001 -0.000
       0.000 -0.001  0.001  0.994 -0.000
      -0.001 -0.000 -0.000 -0.000  0.993

     Number of occupied Hubbard levels =   14.4726

     HUBBARD ENERGY =    0.1763  (Ry)

     total cpu time spent up to now is       27.6 secs

     WARNING: integrated charge=    45.99720029, expected=    46.00000000

     total energy              =    -678.43211925 Ry
     estimated scf accuracy    <       0.00071608 Ry

     total magnetization       =     0.00 Bohr mag/cell
     absolute magnetization    =     5.56 Bohr mag/cell

     iteration # 11     ecut=    35.00 Ry     beta= 0.70
     Davidson diagonalization with overlap

---- Real-time Memory Report at c_bands before calling an iterative solver
           148 MiB given to the printing process from OS
             0 MiB allocation reported by mallinfo(arena+hblkhd)
           312 MiB available memory on the node where the printing process lives
------------------
     ethr =  1.56E-06,  avg # of iterations =  1.0

     =================== HUBBARD OCCUPATIONS ===================
     ------------------------ ATOM    1 ------------------------
     Tr[ns(  1)] (up, down, total) =   4.96645  2.26715  7.23360
     Atomic magnetic moment for atom   1 =   2.69929
     SPIN  1
     eigenvalues:
       0.991  0.991  0.994  0.995  0.995
     eigenvectors (columns):
      -0.495 -0.437  0.000  0.503  0.558
      -0.582  0.195  0.577  0.166 -0.512
       0.122 -0.601  0.577 -0.527  0.112
      -0.437  0.495 -0.000 -0.558  0.503
      -0.460 -0.406 -0.577 -0.361 -0.400
     occupation matrix ns (before diag.):
       0.993 -0.001 -0.001  0.000 -0.001
      -0.001  0.993  0.000 -0.001 -0.000
      -0.001  0.000  0.993  0.001 -0.000
       0.000 -0.001  0.001  0.993 -0.000
      -0.001 -0.000 -0.000 -0.000  0.993
     SPIN  2
     eigenvalues:
       0.040  0.131  0.131  0.983  0.983
     eigenvectors (columns):
      -0.000  0.360  0.930 -0.074  0.003
      -0.577 -0.038  0.047  0.377 -0.722
      -0.577  0.060  0.009  0.437  0.687
       0.000 -0.930  0.360  0.003  0.074
       0.577  0.022  0.056  0.814 -0.035
     occupation matrix ns (before diag.):
       0.135 -0.026 -0.026  0.000 -0.051
      -0.026  0.666 -0.313 -0.044  0.313
      -0.026 -0.313  0.666  0.044  0.313
       0.000 -0.044  0.044  0.135 -0.000
      -0.051  0.313  0.313 -0.000  0.666
     ------------------------ ATOM    2 ------------------------
     Tr[ns(  2)] (up, down, total) =   2.27112  4.96700  7.23813
     Atomic magnetic moment for atom   2 =  -2.69588
     SPIN  1
     eigenvalues:
       0.040  0.132  0.132  0.983  0.983
     eigenvectors (columns):
      -0.000 -0.492  0.867 -0.074  0.004
      -0.577  0.030  0.052  0.372 -0.724
      -0.577 -0.060  0.000  0.442  0.684
       0.000  0.867  0.492  0.004  0.074
       0.577 -0.030  0.052  0.813 -0.040
     occupation matrix ns (before diag.):
       0.137 -0.026 -0.026  0.000 -0.051
      -0.026  0.666 -0.313 -0.044  0.313
      -0.026 -0.313  0.666  0.044  0.313
       0.000 -0.044  0.044  0.137 -0.000
      -0.051  0.313  0.313 -0.000  0.666
     SPIN  2
     eigenvalues:
       0.992  0.992  0.994  0.995  0.995
     eigenvectors (columns):
      -0.515 -0.400  0.000  0.498  0.571
      -0.573  0.233  0.577  0.172 -0.504
       0.085 -0.613  0.577 -0.523  0.103
      -0.400  0.515 -0.000 -0.571  0.498
      -0.488 -0.380 -0.577 -0.350 -0.401
     occupation matrix ns (before diag.):
       0.993 -0.001 -0.001  0.000 -0.001
      -0.001  0.993  0.000 -0.001 -0.000
      -0.001  0.000  0.993  0.001 -0.000
       0.000 -0.001  0.001  0.993 -0.000
      -0.001 -0.000 -0.000 -0.000  0.993

     Number of occupied Hubbard levels =   14.4717

     HUBBARD ENERGY =    0.1651  (Ry)

     total cpu time spent up to now is       14.8 secs

     WARNING: integrated charge=    45.99976472, expected=    46.00000000

     total energy              =    -678.43239762 Ry
     estimated scf accuracy    <       0.00022782 Ry

     total magnetization       =     0.00 Bohr mag/cell
     absolute magnetization    =     5.56 Bohr mag/cell

     iteration # 12     ecut=    35.00 Ry     beta= 0.70
     Davidson diagonalization with overlap

---- Real-time Memory Report at c_bands before calling an iterative solver
           148 MiB given to the printing process from OS
             0 MiB allocation reported by mallinfo(arena+hblkhd)
           270 MiB available memory on the node where the printing process lives
------------------
     ethr =  4.95E-07,  avg # of iterations =  1.1

     =================== HUBBARD OCCUPATIONS ===================
     ------------------------ ATOM    1 ------------------------
     Tr[ns(  1)] (up, down, total) =   4.96670  2.26872  7.23542
     Atomic magnetic moment for atom   1 =   2.69798
     SPIN  1
     eigenvalues:
       0.992  0.992  0.994  0.995  0.995
     eigenvectors (columns):
      -0.529 -0.383  0.000  0.494  0.574
      -0.564  0.253  0.577  0.176 -0.503
       0.063 -0.615  0.577 -0.524  0.099
      -0.383  0.529 -0.000 -0.574  0.494
      -0.501 -0.362 -0.577 -0.348 -0.404
     occupation matrix ns (before diag.):
       0.993 -0.001 -0.001  0.000 -0.001
      -0.001  0.993  0.000 -0.001 -0.000
      -0.001  0.000  0.993  0.001 -0.000
       0.000 -0.001  0.001  0.993 -0.000
      -0.001 -0.000 -0.000 -0.000  0.993
     SPIN  2
     eigenvalues:
       0.039  0.132  0.132  0.983  0.983
     eigenvectors (columns):
      -0.000 -0.418  0.905 -0.084  0.005
      -0.577  0.040  0.056  0.366 -0.727
      -0.577 -0.068  0.006  0.447  0.680
       0.000  0.905  0.418  0.005  0.084
       0.577 -0.029  0.062  0.812 -0.047
     occupation matrix ns (before diag.):
       0.138 -0.029 -0.029  0.000 -0.058
      -0.029  0.664 -0.313 -0.051  0.313
      -0.029 -0.313  0.664  0.051  0.313
       0.000 -0.051  0.051  0.138 -0.000
      -0.058  0.313  0.313 -0.000  0.664
     ------------------------ ATOM    2 ------------------------
     Tr[ns(  2)] (up, down, total) =   2.26842  4.96664  7.23506
     Atomic magnetic moment for atom   2 =  -2.69822
     SPIN  1
     eigenvalues:
       0.039  0.131  0.131  0.983  0.983
     eigenvectors (columns):
      -0.000 -0.428  0.900 -0.084  0.007
      -0.577  0.039  0.057  0.345 -0.737
      -0.577 -0.068  0.006  0.466  0.667
       0.000  0.900  0.428  0.007  0.084
       0.577 -0.029  0.062  0.811 -0.070
     occupation matrix ns (before diag.):
       0.138 -0.029 -0.029  0.000 -0.058
      -0.029  0.664 -0.313 -0.051  0.313
      -0.029 -0.313  0.664  0.051  0.313
       0.000 -0.051  0.051  0.138 -0.000
      -0.058  0.313  0.313 -0.000  0.664
     SPIN  2
     eigenvalues:
       0.992  0.992  0.994  0.995  0.995
     eigenvectors (columns):
      -0.498 -0.423  0.000  0.500  0.568
      -0.582  0.208  0.577  0.171 -0.506
       0.111 -0.608  0.577 -0.524  0.105
      -0.423  0.498 -0.000 -0.568  0.500
      -0.471 -0.400 -0.577 -0.353 -0.401
     occupation matrix ns (before diag.):
       0.993 -0.001 -0.001  0.000 -0.001
      -0.001  0.993  0.000 -0.001 -0.000
      -0.001  0.000  0.993  0.001 -0.000
       0.000 -0.001  0.001  0.993 -0.000
      -0.001 -0.000 -0.000 -0.000  0.993

     Number of occupied Hubbard levels =   14.4705

     HUBBARD ENERGY =    0.1660  (Ry)

     total cpu time spent up to now is       17.2 secs

     WARNING: integrated charge=    45.99990818, expected=    46.00000000

     total energy              =    -678.43262707 Ry
     estimated scf accuracy    <       0.00000414 Ry

     total magnetization       =     0.00 Bohr mag/cell
     absolute magnetization    =     5.56 Bohr mag/cell

     iteration # 13     ecut=    35.00 Ry     beta= 0.70
     Davidson diagonalization with overlap

---- Real-time Memory Report at c_bands before calling an iterative solver
           148 MiB given to the printing process from OS
             0 MiB allocation reported by mallinfo(arena+hblkhd)
           266 MiB available memory on the node where the printing process lives
------------------
     ethr =  9.00E-09,  avg # of iterations =  2.0

     =================== HUBBARD OCCUPATIONS ===================
     ------------------------ ATOM    1 ------------------------
     Tr[ns(  1)] (up, down, total) =   4.96667  2.26876  7.23543
     Atomic magnetic moment for atom   1 =   2.69791
     SPIN  1
     eigenvalues:
       0.992  0.992  0.994  0.995  0.995
     eigenvectors (columns):
      -0.524 -0.393  0.000  0.500  0.566
      -0.567  0.242  0.577  0.170 -0.507
       0.074 -0.613  0.577 -0.524  0.106
      -0.393  0.524 -0.000 -0.566  0.500
      -0.494 -0.370 -0.577 -0.354 -0.401
     occupation matrix ns (before diag.):
       0.993 -0.001 -0.001  0.000 -0.001
      -0.001  0.993  0.000 -0.001 -0.000
      -0.001  0.000  0.993  0.001 -0.000
       0.000 -0.001  0.001  0.993 -0.000
      -0.001 -0.000 -0.000 -0.000  0.993
     SPIN  2
     eigenvalues:
       0.039  0.132  0.132  0.983  0.983
     eigenvectors (columns):
      -0.000  0.455 -0.886 -0.086  0.006
      -0.577 -0.038 -0.059  0.354 -0.733
      -0.577  0.070 -0.003  0.458  0.672
       0.000 -0.886 -0.455  0.006  0.086
       0.577  0.032 -0.063  0.811 -0.060
     occupation matrix ns (before diag.):
       0.138 -0.030 -0.030  0.000 -0.060
      -0.030  0.664 -0.313 -0.052  0.313
      -0.030 -0.313  0.664  0.052  0.313
       0.000 -0.052  0.052  0.138 -0.000
      -0.060  0.313  0.313 -0.000  0.664
     ------------------------ ATOM    2 ------------------------
     Tr[ns(  2)] (up, down, total) =   2.26891  4.96669  7.23560
     Atomic magnetic moment for atom   2 =  -2.69777
     SPIN  1
     eigenvalues:
       0.039  0.132  0.132  0.983  0.983
     eigenvectors (columns):
      -0.000  0.516  0.852 -0.086  0.005
      -0.577 -0.034  0.062  0.367 -0.726
      -0.577  0.070 -0.001  0.445  0.681
       0.000 -0.852  0.516  0.005  0.086
       0.577  0.036  0.060  0.812 -0.045
     occupation matrix ns (before diag.):
       0.138 -0.030 -0.030  0.000 -0.060
      -0.030  0.664 -0.313 -0.052  0.313
      -0.030 -0.313  0.664  0.052  0.313
       0.000 -0.052  0.052  0.138 -0.000
      -0.060  0.313  0.313 -0.000  0.664
     SPIN  2
     eigenvalues:
       0.992  0.992  0.994  0.995  0.995
     eigenvectors (columns):
      -0.553 -0.351  0.000  0.505  0.563
      -0.547  0.286  0.577  0.166 -0.508
       0.026 -0.617  0.577 -0.523  0.110
      -0.351  0.553 -0.000 -0.563  0.505
      -0.521 -0.331 -0.577 -0.357 -0.398
     occupation matrix ns (before diag.):
       0.993 -0.001 -0.001  0.000 -0.001
      -0.001  0.993  0.000 -0.001 -0.000
      -0.001  0.000  0.993  0.001 -0.000
       0.000 -0.001  0.001  0.993 -0.000
      -0.001 -0.000 -0.000 -0.000  0.993

     Number of occupied Hubbard levels =   14.4710

     HUBBARD ENERGY =    0.1659  (Ry)

     total cpu time spent up to now is       19.9 secs

     total energy              =    -678.43263479 Ry
     estimated scf accuracy    <       0.00000092 Ry

     total magnetization       =     0.00 Bohr mag/cell
     absolute magnetization    =     5.56 Bohr mag/cell

     iteration # 14     ecut=    35.00 Ry     beta= 0.70
     Davidson diagonalization with overlap

---- Real-time Memory Report at c_bands before calling an iterative solver
           148 MiB given to the printing process from OS
             0 MiB allocation reported by mallinfo(arena+hblkhd)
           265 MiB available memory on the node where the printing process lives
------------------
     ethr =  2.01E-09,  avg # of iterations =  2.0

     =================== HUBBARD OCCUPATIONS ===================
     ------------------------ ATOM    1 ------------------------
     Tr[ns(  1)] (up, down, total) =   4.96665  2.26871  7.23536
     Atomic magnetic moment for atom   1 =   2.69795
     SPIN  1
     eigenvalues:
       0.992  0.992  0.994  0.995  0.995
     eigenvectors (columns):
      -0.568 -0.326  0.000  0.510  0.558
      -0.534  0.310  0.577  0.162 -0.509
      -0.002 -0.617  0.577 -0.522  0.115
      -0.326  0.568 -0.000 -0.558  0.510
      -0.535 -0.307 -0.577 -0.360 -0.395
     occupation matrix ns (before diag.):
       0.993 -0.001 -0.001  0.000 -0.001
      -0.001  0.993  0.000 -0.001 -0.000
      -0.001  0.000  0.993  0.001 -0.000
       0.000 -0.001  0.001  0.993 -0.000
      -0.001 -0.000 -0.000 -0.000  0.993
     SPIN  2
     eigenvalues:
       0.039  0.132  0.132  0.983  0.983
     eigenvectors (columns):
      -0.000 -0.432  0.898 -0.086  0.005
      -0.577  0.040  0.058  0.367 -0.726
      -0.577 -0.070  0.005  0.446  0.681
       0.000  0.898  0.432  0.005  0.086
       0.577 -0.031  0.064  0.812 -0.046
     occupation matrix ns (before diag.):
       0.138 -0.030 -0.030  0.000 -0.060
      -0.030  0.664 -0.313 -0.052  0.313
      -0.030 -0.313  0.664  0.052  0.313
       0.000 -0.052  0.052  0.138 -0.000
      -0.060  0.313  0.313 -0.000  0.664
     ------------------------ ATOM    2 ------------------------
     Tr[ns(  2)] (up, down, total) =   2.26873  4.96665  7.23538
     Atomic magnetic moment for atom   2 =  -2.69792
     SPIN  1
     eigenvalues:
       0.039  0.132  0.132  0.983  0.983
     eigenvectors (columns):
      -0.000 -0.570  0.817 -0.086  0.004
      -0.577  0.030  0.064  0.370 -0.724
      -0.577 -0.070 -0.006  0.442  0.683
       0.000  0.817  0.570  0.004  0.086
       0.577 -0.040  0.058  0.812 -0.041
     occupation matrix ns (before diag.):
       0.138 -0.030 -0.030  0.000 -0.060
      -0.030  0.664 -0.313 -0.052  0.313
      -0.030 -0.313  0.664  0.052  0.313
       0.000 -0.052  0.052  0.138 -0.000
      -0.060  0.313  0.313 -0.000  0.664
     SPIN  2
     eigenvalues:
       0.992  0.992  0.994  0.995  0.995
     eigenvectors (columns):
      -0.527 -0.389  0.000  0.498  0.569
      -0.566  0.247  0.577  0.173 -0.506
       0.069 -0.613  0.577 -0.524  0.103
      -0.389  0.527 -0.000 -0.569  0.498
      -0.497 -0.366 -0.577 -0.352 -0.402
     occupation matrix ns (before diag.):
       0.993 -0.001 -0.001  0.000 -0.001
      -0.001  0.993  0.000 -0.001 -0.000
      -0.001  0.000  0.993  0.001 -0.000
       0.000 -0.001  0.001  0.993 -0.000
      -0.001 -0.000 -0.000 -0.000  0.993

     Number of occupied Hubbard levels =   14.4707

     HUBBARD ENERGY =    0.1661  (Ry)

     total cpu time spent up to now is       22.1 secs

     WARNING: integrated charge=    46.00001704, expected=    46.00000000

     total energy              =    -678.43263535 Ry
     estimated scf accuracy    <       0.00000007 Ry

     total magnetization       =     0.00 Bohr mag/cell
     absolute magnetization    =     5.56 Bohr mag/cell

     iteration # 15     ecut=    35.00 Ry     beta= 0.70
     Davidson diagonalization with overlap

---- Real-time Memory Report at c_bands before calling an iterative solver
           148 MiB given to the printing process from OS
             0 MiB allocation reported by mallinfo(arena+hblkhd)
           264 MiB available memory on the node where the printing process lives
------------------
     ethr =  1.46E-10,  avg # of iterations =  1.9

     =================== HUBBARD OCCUPATIONS ===================
     ------------------------ ATOM    1 ------------------------
     Tr[ns(  1)] (up, down, total) =   4.96665  2.26883  7.23548
     Atomic magnetic moment for atom   1 =   2.69782
     SPIN  1
     eigenvalues:
       0.992  0.992  0.994  0.995  0.995
     eigenvectors (columns):
      -0.550 -0.355  0.000  0.509  0.559
      -0.549  0.282  0.577  0.162 -0.510
       0.031 -0.616  0.577 -0.522  0.114
      -0.355  0.550 -0.000 -0.559  0.509
      -0.518 -0.335 -0.577 -0.360 -0.395
     occupation matrix ns (before diag.):
       0.993 -0.001 -0.001  0.000 -0.001
      -0.001  0.993  0.000 -0.001 -0.000
      -0.001  0.000  0.993  0.001 -0.000
       0.000 -0.001  0.001  0.993 -0.000
      -0.001 -0.000 -0.000 -0.000  0.993
     SPIN  2
     eigenvalues:
       0.039  0.132  0.132  0.983  0.983
     eigenvectors (columns):
      -0.000 -0.381  0.920 -0.086  0.005
      -0.577  0.043  0.056  0.363 -0.728
      -0.577 -0.070  0.009  0.449  0.679
       0.000  0.920  0.381  0.005  0.086
       0.577 -0.027  0.065  0.812 -0.049
     occupation matrix ns (before diag.):
       0.138 -0.030 -0.030  0.000 -0.060
      -0.030  0.664 -0.313 -0.052  0.313
      -0.030 -0.313  0.664  0.052  0.313
       0.000 -0.052  0.052  0.138 -0.000
      -0.060  0.313  0.313 -0.000  0.664
     ------------------------ ATOM    2 ------------------------
     Tr[ns(  2)] (up, down, total) =   2.26883  4.96665  7.23548
     Atomic magnetic moment for atom   2 =  -2.69782
     SPIN  1
     eigenvalues:
       0.039  0.132  0.132  0.983  0.983
     eigenvectors (columns):
      -0.000 -0.431  0.898 -0.086  0.004
      -0.577  0.040  0.058  0.373 -0.723
      -0.577 -0.070  0.005  0.440  0.684
       0.000  0.898  0.431  0.004  0.086
       0.577 -0.031  0.064  0.813 -0.039
     occupation matrix ns (before diag.):
       0.138 -0.030 -0.030  0.000 -0.060
      -0.030  0.664 -0.313 -0.052  0.313
      -0.030 -0.313  0.664  0.052  0.313
       0.000 -0.052  0.052  0.138 -0.000
      -0.060  0.313  0.313 -0.000  0.664
     SPIN  2
     eigenvalues:
       0.992  0.992  0.994  0.995  0.995
     eigenvectors (columns):
      -0.532 -0.382  0.000  0.510  0.558
      -0.563  0.254  0.577  0.161 -0.510
       0.062 -0.614  0.577 -0.522  0.115
      -0.382  0.532 -0.000 -0.558  0.510
      -0.501 -0.360 -0.577 -0.361 -0.395
     occupation matrix ns (before diag.):
       0.993 -0.001 -0.001  0.000 -0.001
      -0.001  0.993  0.000 -0.001 -0.000
      -0.001  0.000  0.993  0.001 -0.000
       0.000 -0.001  0.001  0.993 -0.000
      -0.001 -0.000 -0.000 -0.000  0.993

     Number of occupied Hubbard levels =   14.4710

     HUBBARD ENERGY =    0.1661  (Ry)

     total cpu time spent up to now is       24.4 secs

     total energy              =    -678.43263538 Ry
     estimated scf accuracy    <          3.6E-09 Ry

     total magnetization       =     0.00 Bohr mag/cell
     absolute magnetization    =     5.56 Bohr mag/cell

     iteration # 16     ecut=    35.00 Ry     beta= 0.70
     Davidson diagonalization with overlap

---- Real-time Memory Report at c_bands before calling an iterative solver
           148 MiB given to the printing process from OS
             0 MiB allocation reported by mallinfo(arena+hblkhd)
           286 MiB available memory on the node where the printing process lives
------------------
     ethr =  7.79E-12,  avg # of iterations =  1.6

     =================== HUBBARD OCCUPATIONS ===================
     ------------------------ ATOM    1 ------------------------
     Tr[ns(  1)] (up, down, total) =   4.96665  2.26882  7.23547
     Atomic magnetic moment for atom   1 =   2.69783
     SPIN  1
     eigenvalues:
       0.992  0.992  0.994  0.995  0.995
     eigenvectors (columns):
      -0.542 -0.368  0.000  0.503  0.564
      -0.556  0.269  0.577  0.168 -0.508
       0.045 -0.615  0.577 -0.524  0.109
      -0.368  0.542 -0.000 -0.564  0.503
      -0.510 -0.347 -0.577 -0.356 -0.399
     occupation matrix ns (before diag.):
       0.993 -0.001 -0.001  0.000 -0.001
      -0.001  0.993  0.000 -0.001 -0.000
      -0.001  0.000  0.993  0.001 -0.000
       0.000 -0.001  0.001  0.993 -0.000
      -0.001 -0.000 -0.000 -0.000  0.993
     SPIN  2
     eigenvalues:
       0.039  0.132  0.132  0.983  0.983
     eigenvectors (columns):
      -0.000  0.663 -0.744 -0.086  0.007
      -0.577 -0.022 -0.067  0.347 -0.736
      -0.577  0.069  0.014  0.464  0.668
       0.000 -0.744 -0.663  0.007  0.086
       0.577  0.047 -0.053  0.811 -0.067
     occupation matrix ns (before diag.):
       0.138 -0.030 -0.030  0.000 -0.060
      -0.030  0.664 -0.313 -0.052  0.313
      -0.030 -0.313  0.664  0.052  0.313
       0.000 -0.052  0.052  0.138 -0.000
      -0.060  0.313  0.313 -0.000  0.664
     ------------------------ ATOM    2 ------------------------
     Tr[ns(  2)] (up, down, total) =   2.26882  4.96665  7.23547
     Atomic magnetic moment for atom   2 =  -2.69783
     SPIN  1
     eigenvalues:
       0.039  0.132  0.132  0.983  0.983
     eigenvectors (columns):
      -0.000  0.347  0.934 -0.086  0.007
      -0.577 -0.045  0.054  0.348 -0.735
      -0.577  0.070  0.012  0.463  0.669
       0.000 -0.934  0.347  0.007  0.086
       0.577  0.025  0.066  0.811 -0.067
     occupation matrix ns (before diag.):
       0.138 -0.030 -0.030  0.000 -0.060
      -0.030  0.664 -0.313 -0.052  0.313
      -0.030 -0.313  0.664  0.052  0.313
       0.000 -0.052  0.052  0.138 -0.000
      -0.060  0.313  0.313 -0.000  0.664
     SPIN  2
     eigenvalues:
       0.992  0.992  0.994  0.995  0.995
     eigenvectors (columns):
      -0.566 -0.329  0.000  0.502  0.565
      -0.535  0.307  0.577  0.169 -0.507
       0.001 -0.617  0.577 -0.524  0.108
      -0.329  0.566 -0.000 -0.565  0.502
      -0.534 -0.310 -0.577 -0.355 -0.400
     occupation matrix ns (before diag.):
       0.993 -0.001 -0.001  0.000 -0.001
      -0.001  0.993  0.000 -0.001 -0.000
      -0.001  0.000  0.993  0.001 -0.000
       0.000 -0.001  0.001  0.993 -0.000
      -0.001 -0.000 -0.000 -0.000  0.993

     Number of occupied Hubbard levels =   14.4709

     HUBBARD ENERGY =    0.1661  (Ry)

     total cpu time spent up to now is       26.7 secs

     total energy              =    -678.43263538 Ry
     estimated scf accuracy    <          4.3E-10 Ry

     total magnetization       =     0.00 Bohr mag/cell
     absolute magnetization    =     5.56 Bohr mag/cell

     iteration # 17     ecut=    35.00 Ry     beta= 0.70
     Davidson diagonalization with overlap

---- Real-time Memory Report at c_bands before calling an iterative solver
           148 MiB given to the printing process from OS
             0 MiB allocation reported by mallinfo(arena+hblkhd)
           287 MiB available memory on the node where the printing process lives
------------------
     ethr =  9.35E-13,  avg # of iterations =  1.9

     =================== HUBBARD OCCUPATIONS ===================
     ------------------------ ATOM    1 ------------------------
     Tr[ns(  1)] (up, down, total) =   4.96665  2.26882  7.23547
     Atomic magnetic moment for atom   1 =   2.69783
     SPIN  1
     eigenvalues:
       0.992  0.992  0.994  0.995  0.995
     eigenvectors (columns):
      -0.569 -0.324  0.000  0.514  0.554
      -0.532  0.312  0.577  0.157 -0.511
      -0.004 -0.617  0.577 -0.521  0.119
      -0.324  0.569 -0.000 -0.554  0.514
      -0.536 -0.305 -0.577 -0.364 -0.392
     occupation matrix ns (before diag.):
       0.993 -0.001 -0.001  0.000 -0.001
      -0.001  0.993  0.000 -0.001 -0.000
      -0.001  0.000  0.993  0.001 -0.000
       0.000 -0.001  0.001  0.993 -0.000
      -0.001 -0.000 -0.000 -0.000  0.993
     SPIN  2
     eigenvalues:
       0.039  0.132  0.132  0.983  0.983
     eigenvectors (columns):
      -0.000  0.502  0.861 -0.086  0.004
      -0.577 -0.035  0.061  0.371 -0.724
      -0.577  0.071 -0.000  0.442  0.683
       0.000 -0.861  0.502  0.004  0.086
       0.577  0.036  0.061  0.812 -0.041
     occupation matrix ns (before diag.):
       0.138 -0.030 -0.030  0.000 -0.060
      -0.030  0.664 -0.313 -0.052  0.313
      -0.030 -0.313  0.664  0.052  0.313
       0.000 -0.052  0.052  0.138 -0.000
      -0.060  0.313  0.313 -0.000  0.664
     ------------------------ ATOM    2 ------------------------
     Tr[ns(  2)] (up, down, total) =   2.26882  4.96665  7.23547
     Atomic magnetic moment for atom   2 =  -2.69783
     SPIN  1
     eigenvalues:
       0.039  0.132  0.132  0.983  0.983
     eigenvectors (columns):
      -0.000 -0.465  0.881 -0.086  0.007
      -0.577  0.038  0.060  0.346 -0.736
      -0.577 -0.071  0.003  0.464  0.668
       0.000  0.881  0.465  0.007  0.086
       0.577 -0.033  0.062  0.811 -0.068
     occupation matrix ns (before diag.):
       0.138 -0.030 -0.030  0.000 -0.060
      -0.030  0.664 -0.313 -0.052  0.313
      -0.030 -0.313  0.664  0.052  0.313
       0.000 -0.052  0.052  0.138 -0.000
      -0.060  0.313  0.313 -0.000  0.664
     SPIN  2
     eigenvalues:
       0.992  0.992  0.994  0.995  0.995
     eigenvectors (columns):
      -0.548 -0.359  0.000  0.517  0.551
      -0.551  0.278  0.577  0.155 -0.512
       0.035 -0.616  0.577 -0.521  0.122
      -0.359  0.548 -0.000 -0.551  0.517
      -0.516 -0.338 -0.577 -0.366 -0.390
     occupation matrix ns (before diag.):
       0.993 -0.001 -0.001  0.000 -0.001
      -0.001  0.993  0.000 -0.001 -0.000
      -0.001  0.000  0.993  0.001 -0.000
       0.000 -0.001  0.001  0.993 -0.000
      -0.001 -0.000 -0.000 -0.000  0.993

     Number of occupied Hubbard levels =   14.4709

     HUBBARD ENERGY =    0.1661  (Ry)

     Magnetic moment per site  (integrated on atomic sphere of radius R)
     atom   1 (R=0.202)  charge= 14.4999  magn=  2.5745
     atom   2 (R=0.202)  charge= 14.4999  magn= -2.5745
     atom   3 (R=0.202)  charge=  5.7331  magn= -0.0000
     atom   4 (R=0.202)  charge=  5.7331  magn= -0.0000

     total cpu time spent up to now is       29.1 secs

     End of self-consistent calculation

 ------ SPIN UP ------------


          k = 0.0000 0.0000 0.0000 (   811 PWs)   bands (ev):

   -81.4866 -77.9346 -45.6823 -44.4367 -44.4367 -41.6942 -41.3020 -41.3020
    -4.8318  -3.6258   5.8834   8.0305   8.0305   8.9005   9.3736   9.3736
    11.5008  11.5008  11.8542  13.4290  13.4290  13.6395  13.6395  16.6959
    18.4652  19.2085  19.2085  22.3029  24.6688  32.1023  32.1458  32.4690
    32.4690  36.4176  36.4176  38.0941  39.5365  40.5417  40.6634  40.6634

     occupation numbers 
     1.0000   1.0000   1.0000   1.0000   1.0000   1.0000   1.0000   1.0000
     1.0000   1.0000   1.0000   1.0000   1.0000   1.0000   1.0000   1.0000
     1.0000   1.0000   1.0000   1.0000   1.0000   1.0000   1.0000   0.0000
     0.0000   0.0000   0.0000   0.0000   0.0000   0.0000   0.0000   0.0000
     0.0000   0.0000   0.0000   0.0000   0.0000   0.0000   0.0000   0.0000

          k = 0.5338-0.1902-0.1902 (   827 PWs)   bands (ev):

   -81.4808 -77.9271 -45.6740 -44.4985 -44.4521 -41.6837 -41.3741 -41.3198
    -3.6545  -3.1994   6.8423   7.6695   7.9758   8.0690   9.1352   9.4400
     9.8403  11.2683  11.3713  12.1178  12.9123  13.0785  13.9753  18.2297
    19.0232  19.2705  21.7078  23.8727  25.8870  26.9484  27.4314  29.7602
    32.6390  33.1138  33.1961  34.9365  38.7148  41.0493  43.0552  43.1473

     occupation numbers 
     1.0000   1.0000   1.0000   1.0000   1.0000   1.0000   1.0000   1.0000
     1.0000   1.0000   1.0000   1.0000   1.0000   1.0000   1.0000   1.0000
     1.0000   1.0000   1.0000   1.0000   1.0000   1.0000   1.0000   0.0000
     0.0000   0.0000   0.0000   0.0000   0.0000   0.0000   0.0000   0.0000
     0.0000   0.0000   0.0000   0.0000   0.0000   0.0000   0.0000   0.0000

          k = 0.3436 0.3436-0.3804 (   827 PWs)   bands (ev):

   -81.4810 -77.9272 -45.6739 -44.4987 -44.4520 -41.6834 -41.3742 -41.3198
    -3.5246  -3.3464   7.1658   7.3461   7.8224   8.0364   9.1437   9.8611
     9.8692  10.7495  11.7513  12.1116  12.4102  13.3103  14.2771  18.2368
    19.3042  19.4019  20.8138  22.9971  27.0202  27.3851  27.5723  29.6838
    31.8433  33.0880  33.9526  36.0132  37.2434  41.3885  42.1524  42.8619

     occupation numbers 
     1.0000   1.0000   1.0000   1.0000   1.0000   1.0000   1.0000   1.0000
     1.0000   1.0000   1.0000   1.0000   1.0000   1.0000   1.0000   1.0000
     1.0000   1.0000   1.0000   1.0000   1.0000   1.0000   1.0000   0.0000
     0.0000   0.0000   0.0000   0.0000   0.0000   0.0000   0.0000   0.0000
     0.0000   0.0000   0.0000   0.0000   0.0000   0.0000   0.0000   0.0000

          k =-0.7241 0.7241 0.0000 (   831 PWs)   bands (ev):

   -81.4775 -77.9229 -45.6694 -44.4952 -44.4949 -41.6779 -41.3697 -41.3695
    -2.9543  -2.9539   7.2741   7.4218   7.5378   8.2956   8.2990   9.0060
     9.8461  11.1410  11.4265  12.5058  12.7959  12.9212  13.1347  18.9701
    19.3324  19.4320  23.8407  24.4332  25.2253  26.1484  26.3150  26.7538
    30.3843  31.0514  36.0249  37.2442  39.3933  40.2477  41.4804  41.8956

     occupation numbers 
     1.0000   1.0000   1.0000   1.0000   1.0000   1.0000   1.0000   1.0000
     1.0000   1.0000   1.0000   1.0000   1.0000   1.0000   1.0000   1.0000
     1.0000   1.0000   1.0000   1.0000   1.0000   1.0000   1.0000   0.0000
     0.0000   0.0000   0.0000   0.0000   0.0000   0.0000   0.0000   0.0000
     0.0000   0.0000   0.0000   0.0000   0.0000   0.0000   0.0000   0.0000

          k = 0.1534 0.1534 0.1534 (   817 PWs)   bands (ev):

   -81.4868 -77.9343 -45.6819 -44.4365 -44.4365 -41.6942 -41.3019 -41.3019
    -4.5669  -3.9696   6.4177   8.0604   8.0604   8.8950   9.3884   9.3884
    10.7187  11.4129  11.4129  12.9480  12.9480  14.2606  14.2606  17.6341
    19.0707  19.0789  19.0789  21.2706  25.6637  28.4285  33.3668  33.3668
    35.4449  35.4449  36.0128  38.3041  39.1130  39.3627  39.3628  40.5344

     occupation numbers 
     1.0000   1.0000   1.0000   1.0000   1.0000   1.0000   1.0000   1.0000
     1.0000   1.0000   1.0000   1.0000   1.0000   1.0000   1.0000   1.0000
     1.0000   1.0000   1.0000   1.0000   1.0000   1.0000   1.0000   0.0000
     0.0000   0.0000   0.0000   0.0000   0.0000   0.0000   0.0000   0.0000
     0.0000   0.0000   0.0000   0.0000   0.0000   0.0000   0.0000   0.0000

          k =-0.9143 0.5338 0.5338 (   815 PWs)   bands (ev):

   -81.4808 -77.9271 -45.6735 -44.4982 -44.4518 -41.6833 -41.3738 -41.3196
    -3.5731  -3.2854   6.8136   7.3739   7.8512   8.0428   9.4554   9.8085
     9.8797  11.4200  11.4841  12.2975  12.4178  13.0158  13.8269  18.4585
    18.6339  19.4395  22.2284  22.5625  26.8479  27.4023  27.7145  28.9610
    31.8943  31.9540  33.8561  37.9243  39.3331  40.4636  41.4464  42.4758

     occupation numbers 
     1.0000   1.0000   1.0000   1.0000   1.0000   1.0000   1.0000   1.0000
     1.0000   1.0000   1.0000   1.0000   1.0000   1.0000   1.0000   1.0000
     1.0000   1.0000   1.0000   1.0000   1.0000   1.0000   1.0000   0.0000
     0.0000   0.0000   0.0000   0.0000   0.0000   0.0000   0.0000   0.0000
     0.0000   0.0000   0.0000   0.0000   0.0000   0.0000   0.0000   0.0000

 ------ SPIN DOWN ----------


          k = 0.0000 0.0000 0.0000 (   811 PWs)   bands (ev):

   -81.4866 -77.9346 -45.6823 -44.4366 -44.4366 -41.6942 -41.3020 -41.3020
    -4.8318  -3.6258   5.8834   8.0306   8.0306   8.9005   9.3736   9.3736
    11.5008  11.5008  11.8541  13.4290  13.4290  13.6395  13.6395  16.6959
    18.4652  19.2085  19.2085  22.3030  24.6688  32.1023  32.1458  32.4690
    32.4690  36.4176  36.4176  38.0941  39.5365  40.5418  40.6635  40.6635

     occupation numbers 
     1.0000   1.0000   1.0000   1.0000   1.0000   1.0000   1.0000   1.0000
     1.0000   1.0000   1.0000   1.0000   1.0000   1.0000   1.0000   1.0000
     1.0000   1.0000   1.0000   1.0000   1.0000   1.0000   1.0000   0.0000
     0.0000   0.0000   0.0000   0.0000   0.0000   0.0000   0.0000   0.0000
     0.0000   0.0000   0.0000   0.0000   0.0000   0.0000   0.0000   0.0000

          k = 0.5338-0.1902-0.1902 (   827 PWs)   bands (ev):

   -81.4808 -77.9271 -45.6740 -44.4985 -44.4520 -41.6837 -41.3741 -41.3198
    -3.6545  -3.1994   6.8423   7.6695   7.9758   8.0690   9.1352   9.4400
     9.8403  11.2683  11.3713  12.1178  12.9123  13.0785  13.9753  18.2297
    19.0232  19.2705  21.7078  23.8727  25.8870  26.9484  27.4314  29.7602
    32.6391  33.1138  33.1961  34.9365  38.7148  41.0493  43.0552  43.1473

     occupation numbers 
     1.0000   1.0000   1.0000   1.0000   1.0000   1.0000   1.0000   1.0000
     1.0000   1.0000   1.0000   1.0000   1.0000   1.0000   1.0000   1.0000
     1.0000   1.0000   1.0000   1.0000   1.0000   1.0000   1.0000   0.0000
     0.0000   0.0000   0.0000   0.0000   0.0000   0.0000   0.0000   0.0000
     0.0000   0.0000   0.0000   0.0000   0.0000   0.0000   0.0000   0.0000

          k = 0.3436 0.3436-0.3804 (   827 PWs)   bands (ev):

   -81.4809 -77.9272 -45.6740 -44.4987 -44.4520 -41.6834 -41.3742 -41.3198
    -3.5246  -3.3464   7.1658   7.3461   7.8224   8.0364   9.1437   9.8612
     9.8692  10.7495  11.7512  12.1116  12.4102  13.3103  14.2771  18.2368
    19.3042  19.4019  20.8138  22.9971  27.0202  27.3851  27.5723  29.6838
    31.8433  33.0881  33.9526  36.0132  37.2434  41.3885  42.1524  42.8619

     occupation numbers 
     1.0000   1.0000   1.0000   1.0000   1.0000   1.0000   1.0000   1.0000
     1.0000   1.0000   1.0000   1.0000   1.0000   1.0000   1.0000   1.0000
     1.0000   1.0000   1.0000   1.0000   1.0000   1.0000   1.0000   0.0000
     0.0000   0.0000   0.0000   0.0000   0.0000   0.0000   0.0000   0.0000
     0.0000   0.0000   0.0000   0.0000   0.0000   0.0000   0.0000   0.0000

          k =-0.7241 0.7241 0.0000 (   831 PWs)   bands (ev):

   -81.4775 -77.9229 -45.6694 -44.4951 -44.4949 -41.6779 -41.3697 -41.3696
    -2.9543  -2.9539   7.2741   7.4218   7.5378   8.2957   8.2990   9.0060
     9.8461  11.1410  11.4265  12.5058  12.7959  12.9211  13.1347  18.9701
    19.3324  19.4320  23.8407  24.4332  25.2253  26.1484  26.3150  26.7538
    30.3843  31.0514  36.0249  37.2442  39.3933  40.2477  41.4804  41.8956

     occupation numbers 
     1.0000   1.0000   1.0000   1.0000   1.0000   1.0000   1.0000   1.0000
     1.0000   1.0000   1.0000   1.0000   1.0000   1.0000   1.0000   1.0000
     1.0000   1.0000   1.0000   1.0000   1.0000   1.0000   1.0000   0.0000
     0.0000   0.0000   0.0000   0.0000   0.0000   0.0000   0.0000   0.0000
     0.0000   0.0000   0.0000   0.0000   0.0000   0.0000   0.0000   0.0000

          k = 0.1534 0.1534 0.1534 (   817 PWs)   bands (ev):

   -81.4868 -77.9343 -45.6820 -44.4365 -44.4365 -41.6942 -41.3019 -41.3019
    -4.5669  -3.9696   6.4177   8.0604   8.0604   8.8950   9.3884   9.3884
    10.7187  11.4128  11.4128  12.9480  12.9480  14.2606  14.2606  17.6341
    19.0707  19.0789  19.0789  21.2706  25.6637  28.4285  33.3668  33.3668
    35.4449  35.4449  36.0128  38.3041  39.1130  39.3628  39.3628  40.5344

     occupation numbers 
     1.0000   1.0000   1.0000   1.0000   1.0000   1.0000   1.0000   1.0000
     1.0000   1.0000   1.0000   1.0000   1.0000   1.0000   1.0000   1.0000
     1.0000   1.0000   1.0000   1.0000   1.0000   1.0000   1.0000   0.0000
     0.0000   0.0000   0.0000   0.0000   0.0000   0.0000   0.0000   0.0000
     0.0000   0.0000   0.0000   0.0000   0.0000   0.0000   0.0000   0.0000

          k =-0.9143 0.5338 0.5338 (   815 PWs)   bands (ev):

   -81.4808 -77.9271 -45.6735 -44.4981 -44.4518 -41.6833 -41.3739 -41.3196
    -3.5731  -3.2854   6.8136   7.3739   7.8512   8.0428   9.4554   9.8084
     9.8797  11.4200  11.4841  12.2975  12.4178  13.0158  13.8269  18.4585
    18.6339  19.4395  22.2284  22.5625  26.8479  27.4023  27.7145  28.9610
    31.8943  31.9540  33.8561  37.9244  39.3331  40.4636  41.4464  42.4758

     occupation numbers 
     1.0000   1.0000   1.0000   1.0000   1.0000   1.0000   1.0000   1.0000
     1.0000   1.0000   1.0000   1.0000   1.0000   1.0000   1.0000   1.0000
     1.0000   1.0000   1.0000   1.0000   1.0000   1.0000   1.0000   0.0000
     0.0000   0.0000   0.0000   0.0000   0.0000   0.0000   0.0000   0.0000
     0.0000   0.0000   0.0000   0.0000   0.0000   0.0000   0.0000   0.0000

     the Fermi energy is    15.5796 ev

!    total energy              =    -678.43263538 Ry
     estimated scf accuracy    <          8.5E-11 Ry
     smearing contrib. (-TS)   =       0.00000000 Ry
     internal energy E=F+TS    =    -678.43263539 Ry

     The total energy is F=E-TS. E is the sum of the following terms:
     one-electron contribution =    -340.97180189 Ry
     hartree contribution      =     200.33207491 Ry
     xc contribution           =     -79.77805687 Ry
     ewald contribution        =    -439.97286945 Ry
     Hubbard energy            =       0.16608881 Ry
     one-center paw contrib.   =     -18.20807089 Ry
      -> PAW hartree energy AE =      56.19881948 Ry
      -> PAW hartree energy PS =     -55.95247142 Ry
      -> PAW xc energy AE      =     -32.98206180 Ry
      -> PAW xc energy PS      =      14.52764285 Ry
      -> total E_H with PAW    =     200.57842297 Ry
      -> total E_XC with PAW   =     -98.23247582 Ry

     total magnetization       =     0.00 Bohr mag/cell
     absolute magnetization    =     5.56 Bohr mag/cell

     convergence has been achieved in  17 iterations

     Writing all to output data dir ./tmp/CoO.save/

     init_run     :      2.86s CPU      2.71s WALL (       1 calls)
     electrons    :     51.99s CPU     26.07s WALL (       1 calls)

     Called by init_run:
     wfcinit      :      0.97s CPU      0.76s WALL (       1 calls)
     wfcinit:atom :      0.01s CPU      0.00s WALL (      12 calls)
     wfcinit:wfcr :      0.87s CPU      0.68s WALL (      12 calls)
     potinit      :      0.71s CPU      0.74s WALL (       1 calls)
     hinit0       :      0.95s CPU      0.99s WALL (       1 calls)

     Called by electrons:
     c_bands      :     30.70s CPU     22.00s WALL (      17 calls)
     sum_band     :     11.14s CPU      8.45s WALL (      17 calls)
     v_of_rho     :      5.09s CPU      5.37s WALL (      18 calls)
     v_h          :      0.04s CPU      0.05s WALL (      18 calls)
     v_xc         :      5.05s CPU      5.31s WALL (      18 calls)
     newd         :      2.43s CPU      2.40s WALL (      18 calls)
     PAW_pot      :      2.83s CPU    -11.93s WALL (      18 calls)
     mix_rho      :      0.20s CPU      0.17s WALL (      17 calls)

     Called by c_bands:
     init_us_2    :      0.29s CPU      0.20s WALL (     432 calls)
     init_us_2:cp :      0.28s CPU      0.20s WALL (     432 calls)
     cegterg      :     30.28s CPU     21.73s WALL (     204 calls)

     Called by sum_band:
     sum_band:wei :      0.01s CPU      0.01s WALL (      17 calls)
     sum_band:loo :      7.18s CPU      5.55s WALL (      17 calls)
     sum_band:buf :      0.02s CPU      0.01s WALL (     204 calls)
     sum_band:ini :      0.17s CPU      0.13s WALL (     204 calls)
     sum_band:cal :      0.26s CPU      0.25s WALL (     204 calls)
     sum_band:bec :      0.01s CPU      0.00s WALL (     204 calls)
     addusdens    :      3.69s CPU      2.71s WALL (      17 calls)
                                        0.00s GPU  (      17 calls)
     addusd:skk   :      0.01s CPU      0.00s WALL (      51 calls)
                                        0.00s GPU  (      51 calls)

     Called by *egterg:
     cdiaghg      :      1.47s CPU      1.03s WALL (     631 calls)
     cegterg:over :      0.76s CPU      0.51s WALL (     427 calls)
     cegterg:upda :      0.46s CPU      0.31s WALL (     427 calls)
     cegterg:last :      1.05s CPU      0.63s WALL (     377 calls)
     h_psi        :     26.50s CPU     19.32s WALL (     643 calls)
     s_psi        :      0.45s CPU      0.30s WALL (     655 calls)
     g_psi        :      0.04s CPU      0.03s WALL (     427 calls)

     Called by h_psi:
     h_psi:calbec :      0.55s CPU      0.47s WALL (     643 calls)
     vloc_psi     :     25.25s CPU     18.34s WALL (     643 calls)
     add_vuspsi   :      0.41s CPU      0.30s WALL (     643 calls)
     vhpsi        :      0.25s CPU      0.19s WALL (     643 calls)

     General routines
     calbec       :      0.96s CPU      0.84s WALL (    1706 calls)
     fft          :      1.24s CPU      1.32s WALL (     444 calls)
     ffts         :      0.21s CPU      0.21s WALL (      70 calls)
     fftw         :     24.85s CPU     18.34s WALL (   45950 calls)
     interpolate  :      0.26s CPU      0.29s WALL (      36 calls)
     davcio       :      0.00s CPU      0.00s WALL (      12 calls)

     Parallel routines

     Hubbard U routines
     new_ns       :      0.06s CPU      0.06s WALL (      17 calls)
     vhpsi        :      0.25s CPU      0.19s WALL (     643 calls)

     PAW routines
     PAW_pot      :      2.83s CPU    -11.93s WALL (      18 calls)
     PAW_symme    :      0.00s CPU      0.00s WALL (      35 calls)

     PWSCF        :     55.11s CPU     29.13s WALL


   This run was terminated on:  13:27:51  24May2023            

=------------------------------------------------------------------------------=
   JOB DONE.
=------------------------------------------------------------------------------=
