
     Program PWSCF v.7.0 starts on  6Jun2023 at 23:25:54 

     This program is part of the open-source Quantum ESPRESSO suite
     for quantum simulation of materials; please cite
         "P. Giannozzi et al., J. Phys.:Condens. Matter 21 395502 (2009);
         "P. Giannozzi et al., J. Phys.:Condens. Matter 29 465901 (2017);
         "P. Giannozzi et al., J. Chem. Phys. 152 154105 (2020);
          URL http://www.quantum-espresso.org", 
     in publications or presentations arising from this work. More details at
     http://www.quantum-espresso.org/quote

     Parallel version (MPI), running on     2 processors

     MPI processes distributed on     1 nodes
     R & G space division:  proc/nbgrp/npool/nimage =       2
     10131 MiB available memory on the printing compute node when the environment starts

     Waiting for input...
     Reading input from standard input

     Current dimensions of program PWSCF are:
     Max number of different atomic species (ntypx) = 10
     Max number of k-points (npk) =  40000
     Max angular momentum in pseudopotentials (lmaxx) =  4
     file C.pbe-rrkjus.UPF: wavefunction(s)  2S 2P renormalized
     file O.pbe-rrkjus.UPF: wavefunction(s)  2S renormalized

     gamma-point specific algorithms are used

     Subspace diagonalization in iterative solution of the eigenvalue problem:
     a serial algorithm will be used


     Parallelization info
     --------------------
     sticks:   dense  smooth     PW     G-vecs:    dense   smooth      PW
     Min        1344     534    131                56351    14262    1773
     Max        1345     535    134                56356    14265    1774
     Sum        2689    1069    265               112707    28527    3547

     Using Slab Decomposition



     bravais-lattice index     =            4
     lattice parameter (alat)  =      13.9620  a.u.
     unit-cell volume          =    2357.0757 (a.u.)^3
     number of atoms/cell      =           19
     number of atomic types    =            2
     number of electrons       =        78.00
     number of Kohn-Sham states=           47
     kinetic-energy cutoff     =      20.0000  Ry
     charge density cutoff     =     200.0000  Ry
     scf convergence threshold =      1.0E-08
     mixing beta               =       0.7000
     number of iterations used =            8  plain     mixing
     energy convergence thresh.=      1.0E-04
     force convergence thresh. =      1.0E-03
     Exchange-correlation=  SLA  PW   PBE  PBE
                           (   1   4   3   4   0   0   0)
     nstep                     =           50


     celldm(1)=  13.962000  celldm(2)=   0.000000  celldm(3)=   1.000000
     celldm(4)=   0.000000  celldm(5)=   0.000000  celldm(6)=   0.000000

     crystal axes: (cart. coord. in units of alat)
               a(1) = (   1.000000   0.000000   0.000000 )  
               a(2) = (  -0.500000   0.866025   0.000000 )  
               a(3) = (   0.000000   0.000000   1.000000 )  

     reciprocal axes: (cart. coord. in units 2 pi/alat)
               b(1) = (  1.000000  0.577350 -0.000000 )  
               b(2) = (  0.000000  1.154701  0.000000 )  
               b(3) = (  0.000000 -0.000000  1.000000 )  


     PseudoPot. # 1 for C  read from file:
     ../../pseudo/C.pbe-rrkjus.UPF
     MD5 check sum: 00fb224312de0c5b6853bd333518df6f
     Pseudo is Ultrasoft, Zval =  4.0
     Generated by new atomic code, or converted to UPF format
     Using radial grid of  627 points,  4 beta functions with: 
                l(1) =   0
                l(2) =   0
                l(3) =   1
                l(4) =   1
     Q(r) pseudized with 0 coefficients 


     PseudoPot. # 2 for O  read from file:
     ../../pseudo/O.pbe-rrkjus.UPF
     MD5 check sum: 390ba29e75625707450f3bd3f0eb6be9
     Pseudo is Ultrasoft, Zval =  6.0
     Generated by new atomic code, or converted to UPF format
     Using radial grid of 1269 points,  4 beta functions with: 
                l(1) =   0
                l(2) =   0
                l(3) =   1
                l(4) =   1
     Q(r) pseudized with 0 coefficients 


     atomic species   valence    mass     pseudopotential
        C              4.00    12.01070     C ( 1.00)
        O              6.00    16.00000     O ( 1.00)

     No symmetry found



   Cartesian axes

     site n.     atom                  positions (alat units)
         1           C   tau(   1) = (   0.0000000   0.0000000   0.0000000  )
         2           C   tau(   2) = (  -0.1666666   0.2886750   0.0000000  )
         3           C   tau(   3) = (  -0.3333332   0.5773500   0.0000000  )
         4           C   tau(   4) = (   0.3333332   0.0000000   0.0000000  )
         5           C   tau(   5) = (   0.1666666   0.2886750   0.0000000  )
         6           C   tau(   6) = (   0.0000000   0.5773500   0.0000000  )
         7           C   tau(   7) = (   0.6666664   0.0000000   0.0000000  )
         8           C   tau(   8) = (   0.4999998   0.2886750   0.0000000  )
         9           C   tau(   9) = (   0.3333332   0.5773500   0.0000000  )
        10           C   tau(  10) = (   0.0000000   0.1924500   0.0000000  )
        11           C   tau(  11) = (  -0.1666666   0.4811250   0.0000000  )
        12           C   tau(  12) = (  -0.3333332   0.7698001   0.0000000  )
        13           C   tau(  13) = (   0.3333332   0.1924500   0.0000000  )
        14           C   tau(  14) = (   0.1666666   0.4811250   0.0000000  )
        15           C   tau(  15) = (   0.0000000   0.7698001   0.0000000  )
        16           C   tau(  16) = (   0.6666664   0.1924500   0.0000000  )
        17           C   tau(  17) = (   0.4999998   0.4811250   0.0000000  )
        18           C   tau(  18) = (   0.3333332   0.7698001   0.0000000  )
        19           O   tau(  19) = (   0.1666768   0.3849238   0.1773056  )

     number of k points=     1  Marzari-Vanderbilt smearing, width (Ry)=  0.0100
                       cart. coord. in units 2pi/alat
        k(    1) = (   0.0000000   0.0000000   0.0000000), wk =   2.0000000

     Dense  grid:    56354 G-vectors     FFT dimensions: (  64,  64,  64)

     Smooth grid:    14264 G-vectors     FFT dimensions: (  40,  40,  40)

     Estimated max dynamical RAM per process >      65.84 MB

     Estimated total dynamical RAM >     131.69 MB

     Initial potential from superposition of free atoms

     starting charge      77.9991, renormalised to      78.0000
     Starting wfcs are   76 randomized atomic wfcs

     total cpu time spent up to now is        0.8 secs

     per-process dynamical memory:    43.8 Mb

     Self-consistent Calculation

     iteration #  1     ecut=    20.00 Ry     beta= 0.70
     Davidson diagonalization with overlap
     ethr =  1.00E-02,  avg # of iterations =  2.0

     negative rho (up, down):  2.582E-07 0.000E+00

     total cpu time spent up to now is        1.0 secs

     total energy              =    -235.97803273 Ry
     estimated scf accuracy    <       1.74139850 Ry

     iteration #  2     ecut=    20.00 Ry     beta= 0.70
     Davidson diagonalization with overlap
     ethr =  2.23E-03,  avg # of iterations =  2.0

     negative rho (up, down):  3.369E-06 0.000E+00

     total cpu time spent up to now is        1.2 secs

     total energy              =    -236.18897030 Ry
     estimated scf accuracy    <       0.05054972 Ry

     iteration #  3     ecut=    20.00 Ry     beta= 0.70
     Davidson diagonalization with overlap
     ethr =  6.48E-05,  avg # of iterations = 10.0

     negative rho (up, down):  4.496E-04 0.000E+00

     total cpu time spent up to now is        1.5 secs

     total energy              =    -236.17730372 Ry
     estimated scf accuracy    <       0.10709815 Ry

     iteration #  4     ecut=    20.00 Ry     beta= 0.70
     Davidson diagonalization with overlap
     ethr =  6.48E-05,  avg # of iterations =  2.0

     negative rho (up, down):  1.243E-05 0.000E+00

     total cpu time spent up to now is        1.6 secs

     total energy              =    -236.20101391 Ry
     estimated scf accuracy    <       0.01450584 Ry

     iteration #  5     ecut=    20.00 Ry     beta= 0.70
     Davidson diagonalization with overlap
     ethr =  1.86E-05,  avg # of iterations =  2.0

     negative rho (up, down):  2.092E-05 0.000E+00

     total cpu time spent up to now is        1.8 secs

     total energy              =    -236.20240157 Ry
     estimated scf accuracy    <       0.00319236 Ry

     iteration #  6     ecut=    20.00 Ry     beta= 0.70
     Davidson diagonalization with overlap
     ethr =  4.09E-06,  avg # of iterations =  2.0

     negative rho (up, down):  4.317E-05 0.000E+00

     total cpu time spent up to now is        2.0 secs

     total energy              =    -236.20270023 Ry
     estimated scf accuracy    <       0.00436563 Ry

     iteration #  7     ecut=    20.00 Ry     beta= 0.70
     Davidson diagonalization with overlap
     ethr =  4.09E-06,  avg # of iterations =  1.0

     negative rho (up, down):  1.484E-05 0.000E+00

     total cpu time spent up to now is        2.1 secs

     total energy              =    -236.20305831 Ry
     estimated scf accuracy    <       0.00014690 Ry

     iteration #  8     ecut=    20.00 Ry     beta= 0.70
     Davidson diagonalization with overlap
     ethr =  1.88E-07,  avg # of iterations =  2.0

     negative rho (up, down):  1.356E-05 0.000E+00

     total cpu time spent up to now is        2.3 secs

     total energy              =    -236.20308283 Ry
     estimated scf accuracy    <       0.00000818 Ry

     iteration #  9     ecut=    20.00 Ry     beta= 0.70
     Davidson diagonalization with overlap
     ethr =  1.05E-08,  avg # of iterations =  3.0

     negative rho (up, down):  1.347E-05 0.000E+00

     total cpu time spent up to now is        2.5 secs

     total energy              =    -236.20308509 Ry
     estimated scf accuracy    <       0.00000144 Ry

     iteration # 10     ecut=    20.00 Ry     beta= 0.70
     Davidson diagonalization with overlap
     ethr =  1.85E-09,  avg # of iterations =  2.0

     negative rho (up, down):  1.349E-05 0.000E+00

     total cpu time spent up to now is        2.7 secs

     total energy              =    -236.20308536 Ry
     estimated scf accuracy    <       0.00000015 Ry

     iteration # 11     ecut=    20.00 Ry     beta= 0.70
     Davidson diagonalization with overlap
     ethr =  1.90E-10,  avg # of iterations =  2.0

     negative rho (up, down):  1.349E-05 0.000E+00

     total cpu time spent up to now is        2.9 secs

     total energy              =    -236.20308538 Ry
     estimated scf accuracy    <       0.00000003 Ry

     iteration # 12     ecut=    20.00 Ry     beta= 0.70
     Davidson diagonalization with overlap
     ethr =  3.44E-11,  avg # of iterations =  2.0

     negative rho (up, down):  1.349E-05 0.000E+00

     total cpu time spent up to now is        3.0 secs

     End of self-consistent calculation

          k = 0.0000 0.0000 0.0000 (  1774 PWs)   bands (ev):

   -22.3971 -18.1902 -16.2926 -16.0158 -15.9898 -15.9660 -15.9432 -14.5847
   -12.0567 -11.7298 -11.6156 -11.4553  -9.8973  -9.7989  -9.1045  -8.9630
    -8.8876  -8.7931  -8.6673  -8.5870  -6.4531  -5.6862  -5.4941  -5.1881
    -5.0155  -4.8226  -4.8016  -4.7683  -4.3619  -3.8863  -3.6277  -3.6061
    -3.5932  -2.2091  -2.1449  -1.9606  -1.1173  -0.2702   1.0432   1.1324
     2.0408   3.8398   4.1563   5.9395   5.9620   5.9901   6.1241

     the Fermi energy is     1.1041 ev

!    total energy              =    -236.20308538 Ry
     estimated scf accuracy    <          7.2E-09 Ry
     smearing contrib. (-TS)   =      -0.00509802 Ry
     internal energy E=F+TS    =    -236.19798736 Ry

     The total energy is F=E-TS. E is the sum of the following terms:
     one-electron contribution =    -565.44854363 Ry
     hartree contribution      =     304.72436107 Ry
     xc contribution           =     -70.27514135 Ry
     ewald contribution        =      94.80133656 Ry

     convergence has been achieved in  12 iterations

     Forces acting on atoms (cartesian axes, Ry/au):

     atom    1 type  1   force =    -0.01545510   -0.00955362   -0.00098179
     atom    2 type  1   force =     0.05448542   -0.03454892   -0.00637812
     atom    3 type  1   force =    -0.00031201    0.05227429    0.00042363
     atom    4 type  1   force =     0.01487291   -0.00954511   -0.00098355
     atom    5 type  1   force =    -0.00032274   -0.02826448    0.04523963
     atom    6 type  1   force =    -0.10847906    0.01179429   -0.03422770
     atom    7 type  1   force =     0.00062998    0.04740379   -0.00672212
     atom    8 type  1   force =    -0.05417272   -0.03402342   -0.00637852
     atom    9 type  1   force =     0.10878028    0.01230460   -0.03423756
     atom   10 type  1   force =    -0.10843399   -0.01239834   -0.03419032
     atom   11 type  1   force =     0.05411002    0.03398876   -0.00637649
     atom   12 type  1   force =    -0.00059141   -0.04702067   -0.00672217
     atom   13 type  1   force =     0.10802600   -0.01201913   -0.03420390
     atom   14 type  1   force =     0.00012055    0.02771352    0.04519837
     atom   15 type  1   force =    -0.01546834    0.00968535   -0.00098268
     atom   16 type  1   force =     0.00048503   -0.05197223    0.00042043
     atom   17 type  1   force =    -0.05417141    0.03457602   -0.00637757
     atom   18 type  1   force =     0.01607377    0.00991408   -0.00098351
     atom   19 type  2   force =    -0.00017717   -0.00030877    0.08846393

     Total force =     0.306157     Total SCF correction =     0.000175

     BFGS Geometry Optimization
     Energy error            =      0.0E+00 Ry
     Gradient error          =      1.1E-01 Ry/Bohr

     number of scf cycles    =   1
     number of bfgs steps    =   0

     energy             new  =    -236.2030853823 Ry

     new trust radius        =       0.1147029310 bohr
     new conv_thr            =       0.0000000100 Ry


ATOMIC_POSITIONS (angstrom)
C            -0.0081784853       -0.0050555594       -0.0005195427
C            -1.2025624395        2.1145559898       -0.0033751561
C            -2.4629548702        4.2933393522        0.0002241762
C             2.4706601646       -0.0050510568       -0.0005204707
C             1.2312240952        2.1178815710        0.0239397837
C            -0.0574046445        4.2719182608       -0.0181125193
C             4.9259128923        0.0250850042       -0.0035571939
C             3.6655176705        2.1148340697       -0.0033753700
C             2.5203538034        4.2721883062       -0.0181177363
C            -0.0573807960        1.4153314920       -0.0180927366
C            -1.2027610930        3.5727169757       -0.0033742956
C            -2.4631027229        5.6626871228       -0.0035572203
C             2.5199546583        1.4155321616       -0.0180999225
C             1.2314586718        3.5693962634        0.0239179488
C            -0.0081854922        5.6926946587       -0.0005200116
C             4.9258361856        1.3943898880        0.0002224835
C             3.6655183652        3.5730277410       -0.0033748630
C             2.4712956327        5.6928156935       -0.0005204506
O             1.2313762440        2.8437966058        1.3568130967



     Writing config-only to output data dir ./tmp/Graphene3x3-O_PBE.save/
     NEW-OLD atomic charge density approx. for the potential

     negative rho (up, down):  1.453E-05 0.000E+00

     total cpu time spent up to now is        3.3 secs

     per-process dynamical memory:    70.5 Mb

     Self-consistent Calculation

     iteration #  1     ecut=    20.00 Ry     beta= 0.70
     Davidson diagonalization with overlap
     ethr =  1.00E-06,  avg # of iterations = 10.0

     negative rho (up, down):  1.340E-05 0.000E+00

     total cpu time spent up to now is        3.6 secs

     WARNING: integrated charge=    78.00019383, expected=    78.00000000

     total energy              =    -236.23049489 Ry
     estimated scf accuracy    <       0.04277328 Ry

     iteration #  2     ecut=    20.00 Ry     beta= 0.70
     Davidson diagonalization with overlap
     ethr =  5.48E-05,  avg # of iterations =  2.0

     negative rho (up, down):  6.247E-05 0.000E+00

     total cpu time spent up to now is        3.8 secs

     WARNING: integrated charge=    78.00245922, expected=    78.00000000

     total energy              =    -236.23837756 Ry
     estimated scf accuracy    <       0.01267907 Ry

     iteration #  3     ecut=    20.00 Ry     beta= 0.70
     Davidson diagonalization with overlap
     ethr =  1.63E-05,  avg # of iterations =  2.0

     negative rho (up, down):  7.002E-05 0.000E+00

     total cpu time spent up to now is        3.9 secs

     WARNING: integrated charge=    78.00313780, expected=    78.00000000

     total energy              =    -236.24054767 Ry
     estimated scf accuracy    <       0.00799442 Ry

     iteration #  4     ecut=    20.00 Ry     beta= 0.70
     Davidson diagonalization with overlap
     ethr =  1.02E-05,  avg # of iterations =  2.0

     negative rho (up, down):  1.856E-05 0.000E+00

     total cpu time spent up to now is        4.1 secs

     WARNING: integrated charge=    78.00325943, expected=    78.00000000

     total energy              =    -236.24224030 Ry
     estimated scf accuracy    <       0.00058061 Ry

     iteration #  5     ecut=    20.00 Ry     beta= 0.70
     Davidson diagonalization with overlap
     ethr =  7.44E-07,  avg # of iterations =  2.0

     negative rho (up, down):  1.443E-05 0.000E+00

     total cpu time spent up to now is        4.3 secs

     WARNING: integrated charge=    78.00322684, expected=    78.00000000

     total energy              =    -236.24235985 Ry
     estimated scf accuracy    <       0.00006825 Ry

     iteration #  6     ecut=    20.00 Ry     beta= 0.70
     Davidson diagonalization with overlap
     ethr =  8.75E-08,  avg # of iterations =  2.0

     negative rho (up, down):  1.369E-05 0.000E+00

     total cpu time spent up to now is        4.5 secs

     WARNING: integrated charge=    78.00322305, expected=    78.00000000

     total energy              =    -236.24236847 Ry
     estimated scf accuracy    <       0.00000476 Ry

     iteration #  7     ecut=    20.00 Ry     beta= 0.70
     Davidson diagonalization with overlap
     ethr =  6.10E-09,  avg # of iterations =  2.0

     negative rho (up, down):  1.352E-05 0.000E+00

     total cpu time spent up to now is        4.6 secs

     WARNING: integrated charge=    78.00322343, expected=    78.00000000

     total energy              =    -236.24236893 Ry
     estimated scf accuracy    <       0.00000019 Ry

     iteration #  8     ecut=    20.00 Ry     beta= 0.70
     Davidson diagonalization with overlap
     ethr =  2.49E-10,  avg # of iterations =  3.0

     negative rho (up, down):  1.350E-05 0.000E+00

     total cpu time spent up to now is        4.8 secs

     WARNING: integrated charge=    78.00322205, expected=    78.00000000

     total energy              =    -236.24236898 Ry
     estimated scf accuracy    <       0.00000010 Ry

     iteration #  9     ecut=    20.00 Ry     beta= 0.70
     Davidson diagonalization with overlap
     ethr =  1.30E-10,  avg # of iterations =  2.0

     negative rho (up, down):  1.350E-05 0.000E+00

     total cpu time spent up to now is        5.0 secs

     WARNING: integrated charge=    78.00322060, expected=    78.00000000

     total energy              =    -236.24236909 Ry
     estimated scf accuracy    <       0.00000003 Ry

     iteration # 10     ecut=    20.00 Ry     beta= 0.70
     Davidson diagonalization with overlap
     ethr =  3.42E-11,  avg # of iterations =  2.0

     negative rho (up, down):  1.350E-05 0.000E+00

     total cpu time spent up to now is        5.2 secs

     End of self-consistent calculation

          k = 0.0000 0.0000 0.0000 (  1774 PWs)   bands (ev):

   -21.6876 -18.2548 -16.2442 -16.2394 -16.1999 -15.9880 -15.7637 -14.4996
   -11.9402 -11.6160 -11.5713 -11.5251  -9.8965  -9.5942  -9.2316  -8.9965
    -8.8459  -8.7230  -8.6093  -8.5843  -6.4786  -5.5032  -5.3496  -5.1601
    -5.1304  -4.9169  -4.7951  -4.6212  -4.0716  -3.9569  -3.7996  -3.7346
    -3.4152  -2.2121  -2.0532  -1.9929  -0.9778  -0.4665   0.7096   1.3849
     2.3238   3.8977   4.1514   5.5705   6.0753   6.2926   6.3159

     the Fermi energy is     1.1346 ev

     WARNING: integrated charge=    78.00321843, expected=    78.00000000

!    total energy              =    -236.24236919 Ry
     estimated scf accuracy    <          2.8E-09 Ry
     smearing contrib. (-TS)   =       0.00002498 Ry
     internal energy E=F+TS    =    -236.24239417 Ry

     The total energy is F=E-TS. E is the sum of the following terms:
     one-electron contribution =    -561.90763714 Ry
     hartree contribution      =     303.03825003 Ry
     xc contribution           =     -70.30051904 Ry
     ewald contribution        =      92.92751197 Ry

     convergence has been achieved in  10 iterations

     Forces acting on atoms (cartesian axes, Ry/au):

     atom    1 type  1   force =    -0.03527919   -0.05244028   -0.00586750
     atom    2 type  1   force =    -0.05804345   -0.00068278   -0.00811622
     atom    3 type  1   force =    -0.00022738   -0.05759420   -0.00004671
     atom    4 type  1   force =     0.03577570   -0.05264432   -0.00587363
     atom    5 type  1   force =    -0.00028335    0.00141185    0.05812091
     atom    6 type  1   force =     0.06365630   -0.00536186   -0.01765928
     atom    7 type  1   force =    -0.00012474   -0.05894246   -0.00312490
     atom    8 type  1   force =     0.05673654   -0.00120240   -0.00812680
     atom    9 type  1   force =    -0.06440059   -0.00612857   -0.01766722
     atom   10 type  1   force =     0.06366683    0.00641437   -0.01766151
     atom   11 type  1   force =    -0.05733705    0.00082387   -0.00811909
     atom   12 type  1   force =     0.00028080    0.05865869   -0.00312634
     atom   13 type  1   force =    -0.06245953    0.00600937   -0.01764307
     atom   14 type  1   force =     0.00036207   -0.00128071    0.05814280
     atom   15 type  1   force =    -0.03587871    0.05263222   -0.00587776
     atom   16 type  1   force =     0.00012958    0.05769782   -0.00005506
     atom   17 type  1   force =     0.05812303    0.00045581   -0.00811146
     atom   18 type  1   force =     0.03545035    0.05245039   -0.00586991
     atom   19 type  2   force =    -0.00014720   -0.00027680    0.01668273

     Total force =     0.260646     Total SCF correction =     0.000106
     Energy error            =      3.9E-02 Ry
     Gradient error          =      6.4E-02 Ry/Bohr

     number of scf cycles    =   2
     number of bfgs steps    =   1

     energy             old  =    -236.2030853823 Ry
     energy             new  =    -236.2423691921 Ry

     CASE: energy            _new < energy            _old

     new trust radius        =       0.0544903449 bohr
     new conv_thr            =       0.0000000064 Ry


ATOMIC_POSITIONS (angstrom)
C            -0.0237464938       -0.0261945128       -0.0028717608
C            -1.2162544244        2.1091453017       -0.0073777547
C            -2.4630868955        4.2794863957        0.0002698159
C             2.4863279737       -0.0262654429       -0.0028752535
C             1.2310694308        2.1141958252        0.0525378849
C            -0.0496574120        4.2716620661       -0.0298572220
C             4.9259599800        0.0099986192       -0.0057347349
C             3.6787650021        2.1093064355       -0.0073820080
C             2.5123717076        4.2717200113       -0.0298668936
C            -0.0496228832        1.4158932434       -0.0298326984
C            -1.2162435262        3.5780971363       -0.0073777301
C            -2.4630853908        5.6777239842       -0.0057353102
C             2.5125897374        1.4159982357       -0.0298349794
C             1.2316127660        3.5730491150        0.0525181234
C            -0.0239808538        5.7139254179       -0.0028762177
C             4.9259572542        1.4083268589        0.0002645043
C             3.6792871111        3.5783571456       -0.0073755908
C             2.4870202811        5.7140122179       -0.0028738295
O             1.2312944758        2.8436464862        1.3762816553



     Writing config-only to output data dir ./tmp/Graphene3x3-O_PBE.save/
     NEW-OLD atomic charge density approx. for the potential

     negative rho (up, down):  1.215E-05 0.000E+00
     extrapolated charge   78.00322, renormalised to   78.00000

     total cpu time spent up to now is        5.4 secs

     per-process dynamical memory:    83.0 Mb

     Self-consistent Calculation

     iteration #  1     ecut=    20.00 Ry     beta= 0.70
     Davidson diagonalization with overlap
     ethr =  1.00E-06,  avg # of iterations =  7.0

     negative rho (up, down):  1.248E-05 0.000E+00

     total cpu time spent up to now is        5.7 secs

     WARNING: integrated charge=    78.00001907, expected=    78.00000000

     total energy              =    -236.25663691 Ry
     estimated scf accuracy    <       0.00636801 Ry

     iteration #  2     ecut=    20.00 Ry     beta= 0.70
     Davidson diagonalization with overlap
     ethr =  8.16E-06,  avg # of iterations =  2.0

     negative rho (up, down):  3.537E-05 0.000E+00

     total cpu time spent up to now is        5.9 secs

     WARNING: integrated charge=    78.00002536, expected=    78.00000000

     total energy              =    -236.25705066 Ry
     estimated scf accuracy    <       0.00490981 Ry

     iteration #  3     ecut=    20.00 Ry     beta= 0.70
     Davidson diagonalization with overlap
     ethr =  6.29E-06,  avg # of iterations =  2.0

     negative rho (up, down):  2.308E-05 0.000E+00

     total cpu time spent up to now is        6.0 secs

     WARNING: integrated charge=    78.00002867, expected=    78.00000000

     total energy              =    -236.25805723 Ry
     estimated scf accuracy    <       0.00196337 Ry

     iteration #  4     ecut=    20.00 Ry     beta= 0.70
     Davidson diagonalization with overlap
     ethr =  2.52E-06,  avg # of iterations =  2.0

     negative rho (up, down):  1.341E-05 0.000E+00

     total cpu time spent up to now is        6.2 secs

     WARNING: integrated charge=    78.00003375, expected=    78.00000000

     total energy              =    -236.25845479 Ry
     estimated scf accuracy    <       0.00010464 Ry

     iteration #  5     ecut=    20.00 Ry     beta= 0.70
     Davidson diagonalization with overlap
     ethr =  1.34E-07,  avg # of iterations =  2.0

     negative rho (up, down):  1.302E-05 0.000E+00

     total cpu time spent up to now is        6.4 secs

     WARNING: integrated charge=    78.00003501, expected=    78.00000000

     total energy              =    -236.25847503 Ry
     estimated scf accuracy    <       0.00000753 Ry

     iteration #  6     ecut=    20.00 Ry     beta= 0.70
     Davidson diagonalization with overlap
     ethr =  9.66E-09,  avg # of iterations =  2.0

     negative rho (up, down):  1.288E-05 0.000E+00

     total cpu time spent up to now is        6.6 secs

     WARNING: integrated charge=    78.00003564, expected=    78.00000000

     total energy              =    -236.25847674 Ry
     estimated scf accuracy    <       0.00000198 Ry

     iteration #  7     ecut=    20.00 Ry     beta= 0.70
     Davidson diagonalization with overlap
     ethr =  2.54E-09,  avg # of iterations =  2.0

     negative rho (up, down):  1.282E-05 0.000E+00

     total cpu time spent up to now is        6.7 secs

     WARNING: integrated charge=    78.00003598, expected=    78.00000000

     total energy              =    -236.25847723 Ry
     estimated scf accuracy    <       0.00000022 Ry

     iteration #  8     ecut=    20.00 Ry     beta= 0.70
     Davidson diagonalization with overlap
     ethr =  2.88E-10,  avg # of iterations =  2.0

     negative rho (up, down):  1.282E-05 0.000E+00

     total cpu time spent up to now is        6.9 secs

     WARNING: integrated charge=    78.00003604, expected=    78.00000000

     total energy              =    -236.25847727 Ry
     estimated scf accuracy    <       0.00000001 Ry

     iteration #  9     ecut=    20.00 Ry     beta= 0.70
     Davidson diagonalization with overlap
     ethr =  1.49E-11,  avg # of iterations =  3.0

     negative rho (up, down):  1.282E-05 0.000E+00

     total cpu time spent up to now is        7.1 secs

     End of self-consistent calculation

          k = 0.0000 0.0000 0.0000 (  1774 PWs)   bands (ev):

   -21.7231 -18.2990 -16.3127 -16.1886 -16.1168 -15.9338 -15.8652 -14.4875
   -12.0169 -11.7261 -11.4970 -11.4799  -9.8686  -9.6132  -9.1237  -9.0311
    -8.8584  -8.7319  -8.7016  -8.4907  -6.4917  -5.6067  -5.2882  -5.2094
    -5.1849  -4.9687  -4.7031  -4.6695  -3.9896  -3.8678  -3.8244  -3.7069
    -3.5465  -2.3654  -2.0215  -1.9472  -1.0388  -0.3130   0.6020   1.4910
     2.1669   3.7888   4.1495   5.8097   6.0139   6.1296   6.2895

     the Fermi energy is     1.1379 ev

     WARNING: integrated charge=    78.00003605, expected=    78.00000000

!    total energy              =    -236.25847728 Ry
     estimated scf accuracy    <          3.3E-09 Ry
     smearing contrib. (-TS)   =       0.00000027 Ry
     internal energy E=F+TS    =    -236.25847755 Ry

     The total energy is F=E-TS. E is the sum of the following terms:
     one-electron contribution =    -560.60790208 Ry
     hartree contribution      =     302.36094135 Ry
     xc contribution           =     -70.28899242 Ry
     ewald contribution        =      92.27747561 Ry

     convergence has been achieved in   9 iterations

     Forces acting on atoms (cartesian axes, Ry/au):

     atom    1 type  1   force =     0.04430150    0.03992845   -0.00839062
     atom    2 type  1   force =    -0.00662830    0.01738430   -0.00875811
     atom    3 type  1   force =     0.00044088    0.01627918   -0.00387536
     atom    4 type  1   force =    -0.04296290    0.03931881   -0.00840034
     atom    5 type  1   force =     0.00038258    0.01358391    0.04217681
     atom    6 type  1   force =     0.02041371    0.00715490   -0.00603713
     atom    7 type  1   force =     0.00001007    0.01858185   -0.00238466
     atom    8 type  1   force =     0.00788304    0.01732171   -0.00873053
     atom    9 type  1   force =    -0.02020211    0.00689498   -0.00605019
     atom   10 type  1   force =     0.02053807   -0.00700886   -0.00610024
     atom   11 type  1   force =    -0.00738769   -0.01672909   -0.00874800
     atom   12 type  1   force =    -0.00001572   -0.01835349   -0.00238641
     atom   13 type  1   force =    -0.02093131   -0.00735518   -0.00605783
     atom   14 type  1   force =    -0.00021506   -0.01329784    0.04220338
     atom   15 type  1   force =     0.04340539   -0.03956412   -0.00840765
     atom   16 type  1   force =    -0.00044088   -0.01662252   -0.00387053
     atom   17 type  1   force =     0.00633256   -0.01692476   -0.00876082
     atom   18 type  1   force =    -0.04477263   -0.04032871   -0.00839766
     atom   19 type  2   force =    -0.00015121   -0.00026353    0.02097589

     Total force =     0.153777     Total SCF correction =     0.000151
     Energy error            =      1.6E-02 Ry
     Gradient error          =      4.5E-02 Ry/Bohr

     number of scf cycles    =   3
     number of bfgs steps    =   2

     energy             old  =    -236.2423691921 Ry
     energy             new  =    -236.2584772774 Ry

     CASE: energy            _new < energy            _old

     new trust radius        =       0.0561119994 bohr
     new conv_thr            =       0.0000000045 Ry


ATOMIC_POSITIONS (angstrom)
C            -0.0093449274       -0.0161735934       -0.0075894702
C            -1.2263575170        2.1159350319       -0.0127557402
C            -2.4629296819        4.2797929772       -0.0014854122
C             2.4725918150       -0.0165517395       -0.0075983459
C             1.2311914761        2.1197551782        0.0817057493
C            -0.0340244272        4.2744542697       -0.0362367036
C             4.9259642488        0.0110079195       -0.0074810091
C             3.6892518311        2.1160053384       -0.0127490577
C             2.4967323402        4.2742943560       -0.0362537787
C            -0.0339305143        1.4133071633       -0.0362400946
C            -1.2265969263        3.5716098531       -0.0127515024
C            -2.4630677685        5.6767871546       -0.0074825966
C             2.4968873470        1.4132053106       -0.0362207473
C             1.2315727090        3.5676232914        0.0817001326
C            -0.0100764137        5.7041025445       -0.0076032242
C             4.9257904587        1.4078885868       -0.0014898728
C             3.6892768904        3.5717430424       -0.0127540775
C             2.4724482845        5.7038214674       -0.0075951453
O             1.2311986155        2.8434763879        1.3908808964



     Writing config-only to output data dir ./tmp/Graphene3x3-O_PBE.save/
     NEW-OLD atomic charge density approx. for the potential

     negative rho (up, down):  1.237E-05 0.000E+00
     extrapolated charge   78.00004, renormalised to   78.00000

     total cpu time spent up to now is        7.4 secs

     per-process dynamical memory:    83.0 Mb

     Self-consistent Calculation

     iteration #  1     ecut=    20.00 Ry     beta= 0.70
     Davidson diagonalization with overlap
     ethr =  1.00E-06,  avg # of iterations = 11.0
     Minimization algorithm failed to find Fermi energy: reverting to bisection
     Possible cause: smearing is larger than the electronic band-gap.

     negative rho (up, down):  1.219E-05 0.000E+00

     total cpu time spent up to now is        7.6 secs

     total energy              =    -236.26120792 Ry
     estimated scf accuracy    <       0.00547617 Ry

     iteration #  2     ecut=    20.00 Ry     beta= 0.70
     Davidson diagonalization with overlap
     ethr =  7.02E-06,  avg # of iterations =  2.0
     Minimization algorithm failed to find Fermi energy: reverting to bisection
     Possible cause: smearing is larger than the electronic band-gap.

     negative rho (up, down):  1.724E-05 0.000E+00

     total cpu time spent up to now is        7.8 secs

     total energy              =    -236.26222375 Ry
     estimated scf accuracy    <       0.00161162 Ry

     iteration #  3     ecut=    20.00 Ry     beta= 0.70
     Davidson diagonalization with overlap
     ethr =  2.07E-06,  avg # of iterations =  3.0
     Minimization algorithm failed to find Fermi energy: reverting to bisection
     Possible cause: smearing is larger than the electronic band-gap.

     negative rho (up, down):  1.531E-05 0.000E+00

     total cpu time spent up to now is        8.0 secs

     total energy              =    -236.26255322 Ry
     estimated scf accuracy    <       0.00045167 Ry

     iteration #  4     ecut=    20.00 Ry     beta= 0.70
     Davidson diagonalization with overlap
     ethr =  5.79E-07,  avg # of iterations =  3.0
     Minimization algorithm failed to find Fermi energy: reverting to bisection
     Possible cause: smearing is larger than the electronic band-gap.

     negative rho (up, down):  1.261E-05 0.000E+00

     total cpu time spent up to now is        8.2 secs

     total energy              =    -236.26266175 Ry
     estimated scf accuracy    <       0.00008768 Ry

     iteration #  5     ecut=    20.00 Ry     beta= 0.70
     Davidson diagonalization with overlap
     ethr =  1.12E-07,  avg # of iterations =  2.0
     Minimization algorithm failed to find Fermi energy: reverting to bisection
     Possible cause: smearing is larger than the electronic band-gap.

     negative rho (up, down):  1.223E-05 0.000E+00

     total cpu time spent up to now is        8.4 secs

     total energy              =    -236.26267744 Ry
     estimated scf accuracy    <       0.00000336 Ry

     iteration #  6     ecut=    20.00 Ry     beta= 0.70
     Davidson diagonalization with overlap
     ethr =  4.31E-09,  avg # of iterations =  3.0
     Minimization algorithm failed to find Fermi energy: reverting to bisection
     Possible cause: smearing is larger than the electronic band-gap.

     negative rho (up, down):  1.222E-05 0.000E+00

     total cpu time spent up to now is        8.5 secs

     total energy              =    -236.26267850 Ry
     estimated scf accuracy    <       0.00000150 Ry

     iteration #  7     ecut=    20.00 Ry     beta= 0.70
     Davidson diagonalization with overlap
     ethr =  1.93E-09,  avg # of iterations =  2.0
     Minimization algorithm failed to find Fermi energy: reverting to bisection
     Possible cause: smearing is larger than the electronic band-gap.

     negative rho (up, down):  1.222E-05 0.000E+00

     total cpu time spent up to now is        8.7 secs

     total energy              =    -236.26267876 Ry
     estimated scf accuracy    <       0.00000024 Ry

     iteration #  8     ecut=    20.00 Ry     beta= 0.70
     Davidson diagonalization with overlap
     ethr =  3.01E-10,  avg # of iterations =  2.0
     Minimization algorithm failed to find Fermi energy: reverting to bisection
     Possible cause: smearing is larger than the electronic band-gap.

     negative rho (up, down):  1.222E-05 0.000E+00

     total cpu time spent up to now is        8.9 secs

     total energy              =    -236.26267882 Ry
     estimated scf accuracy    <       0.00000008 Ry

     iteration #  9     ecut=    20.00 Ry     beta= 0.70
     Davidson diagonalization with overlap
     ethr =  1.03E-10,  avg # of iterations =  2.0
     Minimization algorithm failed to find Fermi energy: reverting to bisection
     Possible cause: smearing is larger than the electronic band-gap.

     negative rho (up, down):  1.222E-05 0.000E+00

     total cpu time spent up to now is        9.1 secs

     End of self-consistent calculation

          k = 0.0000 0.0000 0.0000 (  1774 PWs)   bands (ev):

   -21.9499 -18.2968 -16.1721 -16.1611 -16.0567 -16.0244 -15.9258 -14.5472
   -11.8311 -11.7951 -11.6079 -11.4515  -9.8305  -9.6575  -9.0055  -8.9994
    -8.8481  -8.7670  -8.7643  -8.6060  -6.4832  -5.6621  -5.3280  -5.2220
    -5.0355  -4.9954  -4.7893  -4.7828  -4.0024  -3.7623  -3.7451  -3.7271
    -3.5711  -2.2226  -2.1341  -2.1086  -1.1323  -0.2975   0.8125   1.2890
     2.0980   3.8485   4.1486   5.8334   6.0145   6.0272   6.1679

     the Fermi energy is     0.9378 ev

!    total energy              =    -236.26267883 Ry
     estimated scf accuracy    <          3.3E-09 Ry
     smearing contrib. (-TS)   =       0.00163028 Ry
     internal energy E=F+TS    =    -236.26430911 Ry

     The total energy is F=E-TS. E is the sum of the following terms:
     one-electron contribution =    -559.94356479 Ry
     hartree contribution      =     301.99448955 Ry
     xc contribution           =     -70.26770498 Ry
     ewald contribution        =      91.95247112 Ry

     convergence has been achieved in   9 iterations

     Forces acting on atoms (cartesian axes, Ry/au):

     atom    1 type  1   force =    -0.01627140   -0.00838897   -0.00818838
     atom    2 type  1   force =     0.03941683   -0.01967991   -0.00889803
     atom    3 type  1   force =    -0.00042306    0.01513698   -0.00720789
     atom    4 type  1   force =     0.01444022   -0.00794505   -0.00816453
     atom    5 type  1   force =     0.00019827   -0.00061850    0.02412471
     atom    6 type  1   force =    -0.03218621   -0.02809374    0.00087085
     atom    7 type  1   force =    -0.00044502    0.01406812   -0.00295517
     atom    8 type  1   force =    -0.03920726   -0.01956382   -0.00888886
     atom    9 type  1   force =     0.03148852   -0.02751717    0.00087031
     atom   10 type  1   force =    -0.03120398    0.02757865    0.00077611
     atom   11 type  1   force =     0.03919354    0.01959339   -0.00889706
     atom   12 type  1   force =     0.00037923   -0.01433784   -0.00295299
     atom   13 type  1   force =     0.03185419    0.02797045    0.00083754
     atom   14 type  1   force =    -0.00029116    0.00042089    0.02419859
     atom   15 type  1   force =    -0.01442905    0.00815825   -0.00816362
     atom   16 type  1   force =     0.00044809   -0.01488934   -0.00719949
     atom   17 type  1   force =    -0.03921083    0.01963164   -0.00889257
     atom   18 type  1   force =     0.01639678    0.00866386   -0.00818723
     atom   19 type  2   force =    -0.00014769   -0.00018790    0.03691772

     Total force =     0.141876     Total SCF correction =     0.000090
     Energy error            =      4.2E-03 Ry
     Gradient error          =      3.9E-02 Ry/Bohr

     number of scf cycles    =   4
     number of bfgs steps    =   3

     energy             old  =    -236.2584772774 Ry
     energy             new  =    -236.2626788272 Ry

     CASE: energy            _new < energy            _old

     new trust radius        =       0.0582366309 bohr
     new conv_thr            =       0.0000000039 Ry


ATOMIC_POSITIONS (angstrom)
C            -0.0095959954       -0.0165981751       -0.0139038277
C            -1.2182758943        2.1111993958       -0.0199889336
C            -2.4630249361        4.2843126561       -0.0053491305
C             2.4725177757       -0.0169902565       -0.0139067765
C             1.2313181436        2.1221045829        0.1123952370
C            -0.0371096278        4.2650011906       -0.0413941130
C             4.9258004406        0.0153211517       -0.0099994190
C             3.6814172267        2.1112492011       -0.0199728112
C             2.4995073040        4.2649155951       -0.0414163816
C            -0.0365911776        1.4227157514       -0.0414503858
C            -1.2187225616        3.5764806125       -0.0199819634
C            -2.4629081679        5.6724046637       -0.0100008091
C             2.4998510973        1.4226369382       -0.0413935468
C             1.2314560343        3.5652663576        0.1124271472
C            -0.0099203429        5.7045646392       -0.0139137669
C             4.9258893778        1.4034030650       -0.0053502863
C             3.6812227426        3.5765509486       -0.0199851474
C             2.4726741483        5.7042654037       -0.0139113200
O             1.2310722528        2.8432808186        1.4170962347



     Writing config-only to output data dir ./tmp/Graphene3x3-O_PBE.save/
     NEW-OLD atomic charge density approx. for the potential

     negative rho (up, down):  1.194E-05 0.000E+00

     total cpu time spent up to now is        9.3 secs

     per-process dynamical memory:    85.0 Mb

     Self-consistent Calculation

     iteration #  1     ecut=    20.00 Ry     beta= 0.70
     Davidson diagonalization with overlap
     ethr =  1.00E-06,  avg # of iterations =  7.0

     negative rho (up, down):  1.118E-05 0.000E+00

     total cpu time spent up to now is        9.6 secs

     WARNING: integrated charge=    78.00214380, expected=    78.00000000

     total energy              =    -236.27156662 Ry
     estimated scf accuracy    <       0.00240710 Ry

     iteration #  2     ecut=    20.00 Ry     beta= 0.70
     Davidson diagonalization with overlap
     ethr =  3.09E-06,  avg # of iterations =  2.0

     negative rho (up, down):  1.701E-05 0.000E+00

     total cpu time spent up to now is        9.7 secs

     WARNING: integrated charge=    78.00337570, expected=    78.00000000

     total energy              =    -236.27162162 Ry
     estimated scf accuracy    <       0.00098819 Ry

     iteration #  3     ecut=    20.00 Ry     beta= 0.70
     Davidson diagonalization with overlap
     ethr =  1.27E-06,  avg # of iterations =  2.0

     negative rho (up, down):  1.457E-05 0.000E+00

     total cpu time spent up to now is        9.9 secs

     WARNING: integrated charge=    78.00406801, expected=    78.00000000

     total energy              =    -236.27184899 Ry
     estimated scf accuracy    <       0.00063766 Ry

     iteration #  4     ecut=    20.00 Ry     beta= 0.70
     Davidson diagonalization with overlap
     ethr =  8.18E-07,  avg # of iterations =  2.0

     negative rho (up, down):  1.208E-05 0.000E+00

     total cpu time spent up to now is       10.1 secs

     WARNING: integrated charge=    78.00429947, expected=    78.00000000

     total energy              =    -236.27198474 Ry
     estimated scf accuracy    <       0.00006267 Ry

     iteration #  5     ecut=    20.00 Ry     beta= 0.70
     Davidson diagonalization with overlap
     ethr =  8.03E-08,  avg # of iterations =  2.0

     negative rho (up, down):  1.125E-05 0.000E+00

     total cpu time spent up to now is       10.3 secs

     WARNING: integrated charge=    78.00443654, expected=    78.00000000

     total energy              =    -236.27199069 Ry
     estimated scf accuracy    <       0.00001066 Ry

     iteration #  6     ecut=    20.00 Ry     beta= 0.70
     Davidson diagonalization with overlap
     ethr =  1.37E-08,  avg # of iterations =  2.0

     negative rho (up, down):  1.111E-05 0.000E+00

     total cpu time spent up to now is       10.4 secs

     WARNING: integrated charge=    78.00447648, expected=    78.00000000

     total energy              =    -236.27199207 Ry
     estimated scf accuracy    <       0.00000109 Ry

     iteration #  7     ecut=    20.00 Ry     beta= 0.70
     Davidson diagonalization with overlap
     ethr =  1.40E-09,  avg # of iterations =  2.0

     negative rho (up, down):  1.109E-05 0.000E+00

     total cpu time spent up to now is       10.6 secs

     WARNING: integrated charge=    78.00449396, expected=    78.00000000

     total energy              =    -236.27199246 Ry
     estimated scf accuracy    <       0.00000012 Ry

     iteration #  8     ecut=    20.00 Ry     beta= 0.70
     Davidson diagonalization with overlap
     ethr =  1.57E-10,  avg # of iterations =  2.0

     negative rho (up, down):  1.108E-05 0.000E+00

     total cpu time spent up to now is       10.8 secs

     WARNING: integrated charge=    78.00450052, expected=    78.00000000

     total energy              =    -236.27199246 Ry
     estimated scf accuracy    <          9.6E-09 Ry

     iteration #  9     ecut=    20.00 Ry     beta= 0.70
     Davidson diagonalization with overlap
     ethr =  1.23E-11,  avg # of iterations =  2.0

     negative rho (up, down):  1.108E-05 0.000E+00

     total cpu time spent up to now is       11.0 secs

     End of self-consistent calculation

          k = 0.0000 0.0000 0.0000 (  1774 PWs)   bands (ev):

   -21.9955 -18.2936 -16.1960 -16.1545 -16.0827 -15.9977 -15.8511 -14.6011
   -11.8625 -11.7824 -11.5157 -11.4751  -9.8334  -9.6167  -9.0294  -9.0223
    -8.8631  -8.7242  -8.7172  -8.5803  -6.4796  -5.6972  -5.3367  -5.3254
    -5.0309  -5.0270  -4.7379  -4.7046  -3.9621  -3.7685  -3.7341  -3.7098
    -3.5210  -2.2564  -2.1813  -2.0610  -1.1749  -0.3191   0.7280   1.3846
     2.1340   3.8559   4.1432   5.7422   6.0502   6.0538   6.1559

     the Fermi energy is     1.1431 ev

     WARNING: integrated charge=    78.00450039, expected=    78.00000000

!    total energy              =    -236.27199262 Ry
     estimated scf accuracy    <          4.8E-10 Ry
     smearing contrib. (-TS)   =       0.00003515 Ry
     internal energy E=F+TS    =    -236.27202777 Ry

     The total energy is F=E-TS. E is the sum of the following terms:
     one-electron contribution =    -558.79561429 Ry
     hartree contribution      =     301.42455250 Ry
     xc contribution           =     -70.27477360 Ry
     ewald contribution        =      91.37380763 Ry

     convergence has been achieved in   9 iterations

     Forces acting on atoms (cartesian axes, Ry/au):

     atom    1 type  1   force =    -0.01662106    0.00095521   -0.00819683
     atom    2 type  1   force =     0.00906267    0.00314141   -0.00733713
     atom    3 type  1   force =    -0.00037670   -0.00307816   -0.01030688
     atom    4 type  1   force =     0.01624907    0.00154635   -0.00817859
     atom    5 type  1   force =     0.00018809   -0.00435629    0.01316267
     atom    6 type  1   force =    -0.00675136    0.00372093    0.00710080
     atom    7 type  1   force =     0.00024561   -0.00414526   -0.00414028
     atom    8 type  1   force =    -0.00931290    0.00322310   -0.00731432
     atom    9 type  1   force =     0.00685391    0.00385189    0.00710758
     atom   10 type  1   force =    -0.00697058   -0.00384471    0.00695815
     atom   11 type  1   force =     0.00893713   -0.00349463   -0.00731236
     atom   12 type  1   force =    -0.00024511    0.00412159   -0.00413575
     atom   13 type  1   force =     0.00705653   -0.00370906    0.00705313
     atom   14 type  1   force =    -0.00033895    0.00413538    0.01326101
     atom   15 type  1   force =    -0.01639973   -0.00136999   -0.00817397
     atom   16 type  1   force =     0.00039372    0.00332999   -0.01029669
     atom   17 type  1   force =    -0.00873250   -0.00327822   -0.00732130
     atom   18 type  1   force =     0.01686181   -0.00068286   -0.00817388
     atom   19 type  2   force =    -0.00009965   -0.00006667    0.03624465

     Total force =     0.066313     Total SCF correction =     0.000052
     Energy error            =      9.3E-03 Ry
     Gradient error          =      3.6E-02 Ry/Bohr

     number of scf cycles    =   5
     number of bfgs steps    =   4

     energy             old  =    -236.2626788272 Ry
     energy             new  =    -236.2719926199 Ry

     CASE: energy            _new < energy            _old

     new trust radius        =       0.1095861092 bohr
     new conv_thr            =       0.0000000036 Ry


ATOMIC_POSITIONS (angstrom)
C            -0.0180614783       -0.0133279426       -0.0272211886
C            -1.2103778755        2.1126013203       -0.0338285463
C            -2.4633367078        4.2851064946       -0.0170925960
C             2.4807941187       -0.0134052299       -0.0272084089
C             1.2315896963        2.1216398126        0.1611870445
C            -0.0393117438        4.2637108628       -0.0441370784
C             4.9259213630        0.0152043266       -0.0162547264
C             3.6736316759        2.1126643987       -0.0337827040
C             2.5015791741        4.2636671273       -0.0441615067
C            -0.0386693476        1.4239891080       -0.0443560019
C            -1.2111756771        3.5750074119       -0.0337975305
C            -2.4630134706        5.6725006108       -0.0162528480
C             2.5022121220        1.4239355025       -0.0441868307
C             1.2311023469        3.5655929667        0.1613292732
C            -0.0182129506        5.7010901516       -0.0272150244
C             4.9262167185        1.4027879431       -0.0170833209
C             3.6735719829        3.5751640073       -0.0338105332
C             2.4812680755        5.7011615480       -0.0272130437
O             1.2308498173        2.8429941196        1.4750855710



     Writing config-only to output data dir ./tmp/Graphene3x3-O_PBE.save/
     NEW-OLD atomic charge density approx. for the potential

     negative rho (up, down):  1.131E-05 0.000E+00
     extrapolated charge   78.00450, renormalised to   78.00000

     total cpu time spent up to now is       11.2 secs

     per-process dynamical memory:    85.0 Mb

     Self-consistent Calculation

     iteration #  1     ecut=    20.00 Ry     beta= 0.70
     Davidson diagonalization with overlap
     ethr =  1.00E-06,  avg # of iterations =  7.0

     negative rho (up, down):  9.288E-06 0.000E+00

     total cpu time spent up to now is       11.5 secs

     WARNING: integrated charge=    78.00108374, expected=    78.00000000

     total energy              =    -236.27730953 Ry
     estimated scf accuracy    <       0.00500100 Ry

     iteration #  2     ecut=    20.00 Ry     beta= 0.70
     Davidson diagonalization with overlap
     ethr =  6.41E-06,  avg # of iterations =  2.0

     negative rho (up, down):  2.390E-05 0.000E+00

     total cpu time spent up to now is       11.6 secs

     WARNING: integrated charge=    78.00153647, expected=    78.00000000

     total energy              =    -236.27778406 Ry
     estimated scf accuracy    <       0.00148153 Ry

     iteration #  3     ecut=    20.00 Ry     beta= 0.70
     Davidson diagonalization with overlap
     ethr =  1.90E-06,  avg # of iterations =  3.0

     negative rho (up, down):  1.551E-05 0.000E+00

     total cpu time spent up to now is       11.8 secs

     WARNING: integrated charge=    78.00174090, expected=    78.00000000

     total energy              =    -236.27813370 Ry
     estimated scf accuracy    <       0.00068754 Ry

     iteration #  4     ecut=    20.00 Ry     beta= 0.70
     Davidson diagonalization with overlap
     ethr =  8.81E-07,  avg # of iterations =  2.0

     negative rho (up, down):  1.034E-05 0.000E+00

     total cpu time spent up to now is       12.0 secs

     WARNING: integrated charge=    78.00178978, expected=    78.00000000

     total energy              =    -236.27827461 Ry
     estimated scf accuracy    <       0.00007824 Ry

     iteration #  5     ecut=    20.00 Ry     beta= 0.70
     Davidson diagonalization with overlap
     ethr =  1.00E-07,  avg # of iterations =  2.0

     negative rho (up, down):  9.504E-06 0.000E+00

     total cpu time spent up to now is       12.2 secs

     WARNING: integrated charge=    78.00182045, expected=    78.00000000

     total energy              =    -236.27828674 Ry
     estimated scf accuracy    <       0.00002060 Ry

     iteration #  6     ecut=    20.00 Ry     beta= 0.70
     Davidson diagonalization with overlap
     ethr =  2.64E-08,  avg # of iterations =  2.0

     negative rho (up, down):  9.352E-06 0.000E+00

     total cpu time spent up to now is       12.3 secs

     WARNING: integrated charge=    78.00182771, expected=    78.00000000

     total energy              =    -236.27829186 Ry
     estimated scf accuracy    <       0.00000305 Ry

     iteration #  7     ecut=    20.00 Ry     beta= 0.70
     Davidson diagonalization with overlap
     ethr =  3.91E-09,  avg # of iterations =  2.0

     negative rho (up, down):  9.333E-06 0.000E+00

     total cpu time spent up to now is       12.5 secs

     WARNING: integrated charge=    78.00183054, expected=    78.00000000

     total energy              =    -236.27829215 Ry
     estimated scf accuracy    <       0.00000051 Ry

     iteration #  8     ecut=    20.00 Ry     beta= 0.70
     Davidson diagonalization with overlap
     ethr =  6.51E-10,  avg # of iterations =  2.0

     negative rho (up, down):  9.317E-06 0.000E+00

     total cpu time spent up to now is       12.7 secs

     WARNING: integrated charge=    78.00183237, expected=    78.00000000

     total energy              =    -236.27829225 Ry
     estimated scf accuracy    <          9.6E-09 Ry

     iteration #  9     ecut=    20.00 Ry     beta= 0.70
     Davidson diagonalization with overlap
     ethr =  1.23E-11,  avg # of iterations =  2.0

     negative rho (up, down):  9.318E-06 0.000E+00

     total cpu time spent up to now is       12.9 secs

     End of self-consistent calculation

          k = 0.0000 0.0000 0.0000 (  1774 PWs)   bands (ev):

   -21.8141 -18.3082 -16.2136 -16.1880 -16.1328 -15.9363 -15.8408 -14.6424
   -11.9296 -11.6752 -11.5122 -11.4979  -9.8303  -9.5913  -9.0715  -9.0537
    -8.8443  -8.6715  -8.6665  -8.5529  -6.4947  -5.7447  -5.3710  -5.2724
    -5.0556  -5.0281  -4.7346  -4.7111  -3.8972  -3.7692  -3.7428  -3.6620
    -3.5206  -2.2414  -2.2141  -2.1111  -1.2215  -0.3441   0.6867   1.3925
     2.1541   3.7779   4.1386   5.6891   5.9971   6.0845   6.1953

     the Fermi energy is     1.1279 ev

     WARNING: integrated charge=    78.00183203, expected=    78.00000000

!    total energy              =    -236.27829232 Ry
     estimated scf accuracy    <          5.4E-10 Ry
     smearing contrib. (-TS)   =       0.00001409 Ry
     internal energy E=F+TS    =    -236.27830641 Ry

     The total energy is F=E-TS. E is the sum of the following terms:
     one-electron contribution =    -555.18935823 Ry
     hartree contribution      =     299.60582223 Ry
     xc contribution           =     -70.24375962 Ry
     ewald contribution        =      89.54898920 Ry

     convergence has been achieved in   9 iterations

     Forces acting on atoms (cartesian axes, Ry/au):

     atom    1 type  1   force =     0.01290084   -0.00324715   -0.00601416
     atom    2 type  1   force =    -0.01333143    0.00181455   -0.00486592
     atom    3 type  1   force =     0.00029331   -0.00956434   -0.01446366
     atom    4 type  1   force =    -0.01193719   -0.00374335   -0.00599078
     atom    5 type  1   force =    -0.00034636   -0.00639892    0.00510594
     atom    6 type  1   force =     0.01014771    0.00279917    0.01587513
     atom    7 type  1   force =     0.00018998   -0.01192510   -0.00698845
     atom    8 type  1   force =     0.01335655    0.00182662   -0.00483027
     atom    9 type  1   force =    -0.01046584    0.00295031    0.01596422
     atom   10 type  1   force =     0.01064088   -0.00302207    0.01575950
     atom   11 type  1   force =    -0.01270357   -0.00172797   -0.00482144
     atom   12 type  1   force =    -0.00010273    0.01242216   -0.00698384
     atom   13 type  1   force =    -0.01055591   -0.00288889    0.01583536
     atom   14 type  1   force =     0.00043338    0.00634239    0.00518962
     atom   15 type  1   force =     0.01192224    0.00369108   -0.00597923
     atom   16 type  1   force =    -0.00023655    0.00934268   -0.01444969
     atom   17 type  1   force =     0.01270248   -0.00190143   -0.00482024
     atom   18 type  1   force =    -0.01288991    0.00321423   -0.00595029
     atom   19 type  2   force =    -0.00001790    0.00001601    0.01242819

     Total force =     0.065968     Total SCF correction =     0.000057
     Energy error            =      6.3E-03 Ry
     Gradient error          =      1.6E-02 Ry/Bohr

     number of scf cycles    =   6
     number of bfgs steps    =   5

     energy             old  =    -236.2719926199 Ry
     energy             new  =    -236.2782923208 Ry

     CASE: energy            _new < energy            _old

     new trust radius        =       0.0969054120 bohr
     new conv_thr            =       0.0000000016 Ry


ATOMIC_POSITIONS (angstrom)
C            -0.0141156260       -0.0139621173       -0.0409835383
C            -1.2095408140        2.1114382507       -0.0475841472
C            -2.4633536394        4.2826588209       -0.0345350828
C             2.4771900999       -0.0142070686       -0.0409440388
C             1.2315573582        2.1179009272        0.2040100257
C            -0.0375954867        4.2600398432       -0.0376422816
C             4.9260294928        0.0105649505       -0.0253268389
C             3.6730016938        2.1115190048       -0.0474950639
C             2.4994343226        4.2601768807       -0.0376111125
C            -0.0363417247        1.4274562515       -0.0380457246
C            -1.2102088919        3.5762463597       -0.0475102280
C            -2.4630599694        5.6774279372       -0.0253201130
C             2.5002252445        1.4275307290       -0.0377513850
C             1.2311511614        3.5692098887        0.2042815425
C            -0.0145944770        5.7019299985       -0.0409437257
C             4.9262841985        1.4052019277       -0.0345095577
C             3.6724611100        3.5763117774       -0.0475275934
C             2.4773906106        5.7018762958       -0.0409259867
O             1.2306631768        2.8427638826        1.5263648501



     Writing config-only to output data dir ./tmp/Graphene3x3-O_PBE.save/
     NEW-OLD atomic charge density approx. for the potential

     negative rho (up, down):  8.746E-06 0.000E+00
     extrapolated charge   78.00183, renormalised to   78.00000

     total cpu time spent up to now is       13.2 secs

     per-process dynamical memory:    85.0 Mb

     Self-consistent Calculation

     iteration #  1     ecut=    20.00 Ry     beta= 0.70
     Davidson diagonalization with overlap
     ethr =  1.00E-06,  avg # of iterations =  6.0

     negative rho (up, down):  7.472E-06 0.000E+00

     total cpu time spent up to now is       13.4 secs

     WARNING: integrated charge=    78.00121621, expected=    78.00000000

     total energy              =    -236.28152897 Ry
     estimated scf accuracy    <       0.00407927 Ry

     iteration #  2     ecut=    20.00 Ry     beta= 0.70
     Davidson diagonalization with overlap
     ethr =  5.23E-06,  avg # of iterations =  2.0

     negative rho (up, down):  2.093E-05 0.000E+00

     total cpu time spent up to now is       13.6 secs

     WARNING: integrated charge=    78.00143739, expected=    78.00000000

     total energy              =    -236.28184248 Ry
     estimated scf accuracy    <       0.00140484 Ry

     iteration #  3     ecut=    20.00 Ry     beta= 0.70
     Davidson diagonalization with overlap
     ethr =  1.80E-06,  avg # of iterations =  3.0

     negative rho (up, down):  1.739E-05 0.000E+00

     total cpu time spent up to now is       13.8 secs

     WARNING: integrated charge=    78.00154936, expected=    78.00000000

     total energy              =    -236.28212694 Ry
     estimated scf accuracy    <       0.00095027 Ry

     iteration #  4     ecut=    20.00 Ry     beta= 0.70
     Davidson diagonalization with overlap
     ethr =  1.22E-06,  avg # of iterations =  2.0

     negative rho (up, down):  8.430E-06 0.000E+00

     total cpu time spent up to now is       13.9 secs

     WARNING: integrated charge=    78.00162066, expected=    78.00000000

     total energy              =    -236.28231444 Ry
     estimated scf accuracy    <       0.00006525 Ry

     iteration #  5     ecut=    20.00 Ry     beta= 0.70
     Davidson diagonalization with overlap
     ethr =  8.36E-08,  avg # of iterations =  3.0

     negative rho (up, down):  7.718E-06 0.000E+00

     total cpu time spent up to now is       14.1 secs

     WARNING: integrated charge=    78.00165085, expected=    78.00000000

     total energy              =    -236.28232856 Ry
     estimated scf accuracy    <       0.00002754 Ry

     iteration #  6     ecut=    20.00 Ry     beta= 0.70
     Davidson diagonalization with overlap
     ethr =  3.53E-08,  avg # of iterations =  2.0

     negative rho (up, down):  7.598E-06 0.000E+00

     total cpu time spent up to now is       14.3 secs

     WARNING: integrated charge=    78.00166333, expected=    78.00000000

     total energy              =    -236.28233270 Ry
     estimated scf accuracy    <       0.00000271 Ry

     iteration #  7     ecut=    20.00 Ry     beta= 0.70
     Davidson diagonalization with overlap
     ethr =  3.47E-09,  avg # of iterations =  2.0

     negative rho (up, down):  7.580E-06 0.000E+00

     total cpu time spent up to now is       14.5 secs

     WARNING: integrated charge=    78.00166372, expected=    78.00000000

     total energy              =    -236.28233399 Ry
     estimated scf accuracy    <       0.00000030 Ry

     iteration #  8     ecut=    20.00 Ry     beta= 0.70
     Davidson diagonalization with overlap
     ethr =  3.79E-10,  avg # of iterations =  2.0

     negative rho (up, down):  7.573E-06 0.000E+00

     total cpu time spent up to now is       14.6 secs

     WARNING: integrated charge=    78.00166404, expected=    78.00000000

     total energy              =    -236.28233389 Ry
     estimated scf accuracy    <          9.0E-09 Ry

     iteration #  9     ecut=    20.00 Ry     beta= 0.70
     Davidson diagonalization with overlap
     ethr =  1.15E-11,  avg # of iterations =  4.0

     negative rho (up, down):  7.572E-06 0.000E+00

     total cpu time spent up to now is       14.8 secs

     WARNING: integrated charge=    78.00166392, expected=    78.00000000

     total energy              =    -236.28233391 Ry
     estimated scf accuracy    <          2.7E-09 Ry

     iteration # 10     ecut=    20.00 Ry     beta= 0.70
     Davidson diagonalization with overlap
     ethr =  3.50E-12,  avg # of iterations =  2.0

     negative rho (up, down):  7.572E-06 0.000E+00

     total cpu time spent up to now is       15.0 secs

     End of self-consistent calculation

          k = 0.0000 0.0000 0.0000 (  1774 PWs)   bands (ev):

   -21.6404 -18.3167 -16.1946 -16.1841 -16.1295 -15.9528 -15.8574 -14.6852
   -11.9323 -11.7006 -11.5056 -11.4791  -9.7985  -9.5890  -9.0846  -9.0140
    -8.8105  -8.6938  -8.6709  -8.5798  -6.5058  -5.7378  -5.4098  -5.2375
    -5.0743  -5.0139  -4.7371  -4.7214  -3.8504  -3.7556  -3.7537  -3.6093
    -3.5407  -2.3085  -2.2743  -2.0872  -1.2554  -0.3034   0.6827   1.3936
     2.0867   3.7543   4.1414   5.6753   5.9627   6.0639   6.1335

     the Fermi energy is     1.1265 ev

     WARNING: integrated charge=    78.00166385, expected=    78.00000000

!    total energy              =    -236.28233391 Ry
     estimated scf accuracy    <          2.7E-10 Ry
     smearing contrib. (-TS)   =       0.00001278 Ry
     internal energy E=F+TS    =    -236.28234669 Ry

     The total energy is F=E-TS. E is the sum of the following terms:
     one-electron contribution =    -551.78861755 Ry
     hartree contribution      =     297.88677931 Ry
     xc contribution           =     -70.20340220 Ry
     ewald contribution        =      87.82289375 Ry

     convergence has been achieved in  10 iterations

     Forces acting on atoms (cartesian axes, Ry/au):

     atom    1 type  1   force =    -0.00349066    0.00266991   -0.00255285
     atom    2 type  1   force =    -0.01405455    0.00758151   -0.00248088
     atom    3 type  1   force =     0.00007871    0.00332105   -0.01739534
     atom    4 type  1   force =     0.00325106    0.00281368   -0.00249740
     atom    5 type  1   force =    -0.00003626    0.01047870    0.00225090
     atom    6 type  1   force =     0.01352687    0.01173165    0.01855228
     atom    7 type  1   force =    -0.00010606    0.00646648   -0.00987992
     atom    8 type  1   force =     0.01391844    0.00766677   -0.00244155
     atom    9 type  1   force =    -0.01271936    0.01140993    0.01858501
     atom   10 type  1   force =     0.01203114   -0.01124119    0.01835704
     atom   11 type  1   force =    -0.01472542   -0.00810468   -0.00243913
     atom   12 type  1   force =     0.00011141   -0.00691552   -0.00988331
     atom   13 type  1   force =    -0.01258856   -0.01139977    0.01847534
     atom   14 type  1   force =    -0.00000554   -0.01026265    0.00230823
     atom   15 type  1   force =    -0.00326022   -0.00281192   -0.00246722
     atom   16 type  1   force =    -0.00008630   -0.00304087   -0.01738679
     atom   17 type  1   force =     0.01466553   -0.00774628   -0.00241462
     atom   18 type  1   force =     0.00350499   -0.00267646   -0.00245651
     atom   19 type  2   force =    -0.00001521    0.00005965   -0.00423325

     Total force =     0.069881     Total SCF correction =     0.000030
     Energy error            =      4.0E-03 Ry
     Gradient error          =      1.9E-02 Ry/Bohr

     number of scf cycles    =   7
     number of bfgs steps    =   6

     energy             old  =    -236.2782923208 Ry
     energy             new  =    -236.2823339071 Ry

     CASE: energy            _new < energy            _old

     new trust radius        =       0.1417189483 bohr
     new conv_thr            =       0.0000000019 Ry


ATOMIC_POSITIONS (angstrom)
C            -0.0152741020       -0.0140516858       -0.0637142253
C            -1.2115850912        2.1120168674       -0.0705417468
C            -2.4634116672        4.2857778922       -0.0738148246
C             2.4781937805       -0.0143025068       -0.0635881098
C             1.2315508178        2.1221782193        0.2717680272
C            -0.0303881197        4.2584849634       -0.0145123602
C             4.9259748126        0.0132607988       -0.0463996277
C             3.6752783167        2.1122095579       -0.0703600647
C             2.4921735672        4.2587011195       -0.0143834760
C            -0.0293550747        1.4290611842       -0.0153473167
C            -1.2127355675        3.5753300141       -0.0703763884
C            -2.4629338794        5.6746626298       -0.0463890064
C             2.4933848027        1.4292420300       -0.0147723205
C             1.2311259744        3.5649164745        0.2722764824
C            -0.0155722417        5.7021216956       -0.0635537405
C             4.9264061618        1.4023312582       -0.0737588941
C             3.6747173929        3.5755785790       -0.0703783539
C             2.4786713992        5.7021219269       -0.0635120308
O             1.2303565576        2.8424435217        1.6013579768



     Writing config-only to output data dir ./tmp/Graphene3x3-O_PBE.save/
     NEW-OLD atomic charge density approx. for the potential

     negative rho (up, down):  1.292E-05 0.000E+00
     extrapolated charge   78.00166, renormalised to   78.00000

     total cpu time spent up to now is       15.2 secs

     per-process dynamical memory:    85.0 Mb

     Self-consistent Calculation

     iteration #  1     ecut=    20.00 Ry     beta= 0.70
     Davidson diagonalization with overlap
     ethr =  1.00E-06,  avg # of iterations =  8.0

     negative rho (up, down):  7.332E-06 0.000E+00

     total cpu time spent up to now is       15.5 secs

     WARNING: integrated charge=    78.00364028, expected=    78.00000000

     total energy              =    -236.28447903 Ry
     estimated scf accuracy    <       0.01170391 Ry

     iteration #  2     ecut=    20.00 Ry     beta= 0.70
     Davidson diagonalization with overlap
     ethr =  1.50E-05,  avg # of iterations =  2.0

     negative rho (up, down):  4.152E-05 0.000E+00

     total cpu time spent up to now is       15.7 secs

     WARNING: integrated charge=    78.00401528, expected=    78.00000000

     total energy              =    -236.28525382 Ry
     estimated scf accuracy    <       0.00465645 Ry

     iteration #  3     ecut=    20.00 Ry     beta= 0.70
     Davidson diagonalization with overlap
     ethr =  5.97E-06,  avg # of iterations =  3.0

     negative rho (up, down):  4.184E-05 0.000E+00

     total cpu time spent up to now is       15.9 secs

     WARNING: integrated charge=    78.00414070, expected=    78.00000000

     total energy              =    -236.28621629 Ry
     estimated scf accuracy    <       0.00362029 Ry

     iteration #  4     ecut=    20.00 Ry     beta= 0.70
     Davidson diagonalization with overlap
     ethr =  4.64E-06,  avg # of iterations =  2.0

     negative rho (up, down):  8.454E-06 0.000E+00

     total cpu time spent up to now is       16.0 secs

     WARNING: integrated charge=    78.00433037, expected=    78.00000000

     total energy              =    -236.28686840 Ry
     estimated scf accuracy    <       0.00014931 Ry

     iteration #  5     ecut=    20.00 Ry     beta= 0.70
     Davidson diagonalization with overlap
     ethr =  1.91E-07,  avg # of iterations =  3.0

     negative rho (up, down):  7.010E-06 0.000E+00

     total cpu time spent up to now is       16.2 secs

     WARNING: integrated charge=    78.00437558, expected=    78.00000000

     total energy              =    -236.28691115 Ry
     estimated scf accuracy    <       0.00009607 Ry

     iteration #  6     ecut=    20.00 Ry     beta= 0.70
     Davidson diagonalization with overlap
     ethr =  1.23E-07,  avg # of iterations =  2.0

     negative rho (up, down):  6.748E-06 0.000E+00

     total cpu time spent up to now is       16.4 secs

     WARNING: integrated charge=    78.00439712, expected=    78.00000000

     total energy              =    -236.28692367 Ry
     estimated scf accuracy    <       0.00000249 Ry

     iteration #  7     ecut=    20.00 Ry     beta= 0.70
     Davidson diagonalization with overlap
     ethr =  3.19E-09,  avg # of iterations =  3.0

     negative rho (up, down):  6.651E-06 0.000E+00

     total cpu time spent up to now is       16.6 secs

     WARNING: integrated charge=    78.00439695, expected=    78.00000000

     total energy              =    -236.28692524 Ry
     estimated scf accuracy    <       0.00000029 Ry

     iteration #  8     ecut=    20.00 Ry     beta= 0.70
     Davidson diagonalization with overlap
     ethr =  3.73E-10,  avg # of iterations =  2.0

     negative rho (up, down):  6.635E-06 0.000E+00

     total cpu time spent up to now is       16.9 secs

     WARNING: integrated charge=    78.00439946, expected=    78.00000000

     total energy              =    -236.28692483 Ry
     estimated scf accuracy    <       0.00000005 Ry

     iteration #  9     ecut=    20.00 Ry     beta= 0.70
     Davidson diagonalization with overlap
     ethr =  6.03E-11,  avg # of iterations =  2.0

     negative rho (up, down):  6.631E-06 0.000E+00

     total cpu time spent up to now is       17.0 secs

     WARNING: integrated charge=    78.00439899, expected=    78.00000000

     total energy              =    -236.28692510 Ry
     estimated scf accuracy    <          2.6E-09 Ry

     iteration # 10     ecut=    20.00 Ry     beta= 0.70
     Davidson diagonalization with overlap
     ethr =  3.35E-12,  avg # of iterations =  2.0

     negative rho (up, down):  6.631E-06 0.000E+00

     total cpu time spent up to now is       17.2 secs

     End of self-consistent calculation

          k = 0.0000 0.0000 0.0000 (  1774 PWs)   bands (ev):

   -21.5820 -18.3270 -16.1913 -16.1777 -16.0707 -15.9159 -15.8576 -14.7526
   -11.8792 -11.6976 -11.5280 -11.4863  -9.7702  -9.5774  -9.0532  -9.0396
    -8.8162  -8.6935  -8.6345  -8.5710  -6.5081  -5.7970  -5.3944  -5.1955
    -5.0687  -5.0177  -4.7181  -4.7119  -3.8768  -3.7757  -3.7495  -3.5435
    -3.5168  -2.3588  -2.2464  -2.1445  -1.3241  -0.3239   0.7287   1.3866
     2.0606   3.6488   4.1579   5.6534   5.9543   6.0135   6.0868

     the Fermi energy is     1.1445 ev

     WARNING: integrated charge=    78.00439867, expected=    78.00000000

!    total energy              =    -236.28692507 Ry
     estimated scf accuracy    <          4.4E-10 Ry
     smearing contrib. (-TS)   =       0.00003434 Ry
     internal energy E=F+TS    =    -236.28695941 Ry

     The total energy is F=E-TS. E is the sum of the following terms:
     one-electron contribution =    -546.79355436 Ry
     hartree contribution      =     295.36502419 Ry
     xc contribution           =     -70.15008019 Ry
     ewald contribution        =      85.29165096 Ry

     convergence has been achieved in  10 iterations

     Forces acting on atoms (cartesian axes, Ry/au):

     atom    1 type  1   force =     0.00583470    0.00461274    0.00528026
     atom    2 type  1   force =     0.00065481    0.00103384    0.00242236
     atom    3 type  1   force =     0.00010158   -0.00584323   -0.01958960
     atom    4 type  1   force =    -0.00510568    0.00486412    0.00532073
     atom    5 type  1   force =     0.00006967   -0.00939961   -0.00492910
     atom    6 type  1   force =    -0.00459447    0.00437518    0.01514776
     atom    7 type  1   force =     0.00027203   -0.00312655   -0.01309747
     atom    8 type  1   force =    -0.00093450    0.00106617    0.00247238
     atom    9 type  1   force =     0.00527229    0.00427246    0.01517172
     atom   10 type  1   force =    -0.00452649   -0.00458977    0.01507110
     atom   11 type  1   force =     0.00152507   -0.00050305    0.00251126
     atom   12 type  1   force =    -0.00021611    0.00348260   -0.01312527
     atom   13 type  1   force =     0.00389658   -0.00474330    0.01515620
     atom   14 type  1   force =    -0.00011696    0.00953230   -0.00485545
     atom   15 type  1   force =     0.00521024   -0.00498773    0.00538366
     atom   16 type  1   force =    -0.00021940    0.00516303   -0.01960593
     atom   17 type  1   force =    -0.00117872   -0.00044568    0.00256639
     atom   18 type  1   force =    -0.00599480   -0.00484212    0.00541564
     atom   19 type  2   force =     0.00005017    0.00007860   -0.01671662

     Total force =     0.056098     Total SCF correction =     0.000045
     Energy error            =      4.6E-03 Ry
     Gradient error          =      2.0E-02 Ry/Bohr

     number of scf cycles    =   8
     number of bfgs steps    =   7

     energy             old  =    -236.2823339071 Ry
     energy             new  =    -236.2869250745 Ry

     CASE: energy            _new < energy            _old

     new trust radius        =       0.0563939864 bohr
     new conv_thr            =       0.0000000020 Ry


ATOMIC_POSITIONS (angstrom)
C            -0.0139372374       -0.0127557715       -0.0695412999
C            -1.2115558646        2.1126306259       -0.0777260344
C            -2.4633792347        4.2822756530       -0.1034509992
C             2.4771423637       -0.0128108097       -0.0693493968
C             1.2315487013        2.1175495073        0.2888582521
C            -0.0306776389        4.2600731368        0.0089458178
C             4.9261118474        0.0110875394       -0.0633440859
C             3.6750967666        2.1129091320       -0.0774735910
C             2.4928482845        4.2603162858        0.0091404562
C            -0.0297146281        1.4273102161        0.0078723925
C            -1.2122997464        3.5748226677       -0.0774649264
C            -2.4630091922        5.6770229928       -0.0633478817
C             2.4934166244        1.4274970907        0.0086220324
C             1.2310754485        3.5695985505        0.2895176002
C            -0.0144713927        5.7006167559       -0.0692602133
C             4.9263335173        1.4055446860       -0.1033905381
C             3.6744507180        3.5752003499       -0.0774256771
C             2.4773140750        5.7007847561       -0.0691881383
O             1.2302844282        2.8424111752        1.6180062310



     Writing config-only to output data dir ./tmp/Graphene3x3-O_PBE.save/
     NEW-OLD atomic charge density approx. for the potential

     negative rho (up, down):  9.374E-06 0.000E+00
     extrapolated charge   78.00440, renormalised to   78.00000

     total cpu time spent up to now is       17.5 secs

     per-process dynamical memory:    85.0 Mb

     Self-consistent Calculation

     iteration #  1     ecut=    20.00 Ry     beta= 0.70
     Davidson diagonalization with overlap
     ethr =  1.00E-06,  avg # of iterations =  7.0

     negative rho (up, down):  7.496E-06 0.000E+00

     total cpu time spent up to now is       17.7 secs

     WARNING: integrated charge=    78.00568112, expected=    78.00000000

     total energy              =    -236.28965466 Ry
     estimated scf accuracy    <       0.00249321 Ry

     iteration #  2     ecut=    20.00 Ry     beta= 0.70
     Davidson diagonalization with overlap
     ethr =  3.20E-06,  avg # of iterations =  2.0

     negative rho (up, down):  7.940E-06 0.000E+00

     total cpu time spent up to now is       17.9 secs

     WARNING: integrated charge=    78.00650124, expected=    78.00000000

     total energy              =    -236.29015188 Ry
     estimated scf accuracy    <       0.00025137 Ry

     iteration #  3     ecut=    20.00 Ry     beta= 0.70
     Davidson diagonalization with overlap
     ethr =  3.22E-07,  avg # of iterations =  2.0

     negative rho (up, down):  8.794E-06 0.000E+00

     total cpu time spent up to now is       18.1 secs

     WARNING: integrated charge=    78.00676058, expected=    78.00000000

     total energy              =    -236.29015642 Ry
     estimated scf accuracy    <       0.00026469 Ry

[...]
C             1.2314721528        3.5705541621        0.3106722254
C            -0.0141618371        5.7025210547       -0.0261116173
C             4.9260821171        1.4037554043       -0.1749530827
C             3.6717073054        3.5760024624       -0.1131963913
C             2.4772724866        5.7024373836       -0.0259220629
O             1.2300109214        2.8418633947        1.6229981966



     Writing config-only to output data dir ./tmp/Graphene3x3-O_PBE.save/
     NEW-OLD atomic charge density approx. for the potential

     negative rho (up, down):  4.624E-06 0.000E+00
     extrapolated charge   78.00228, renormalised to   78.00000

     total cpu time spent up to now is       38.8 secs

     per-process dynamical memory:    85.0 Mb

     Self-consistent Calculation

     iteration #  1     ecut=    20.00 Ry     beta= 0.70
     Davidson diagonalization with overlap
     ethr =  1.00E-06,  avg # of iterations =  3.0

     negative rho (up, down):  4.603E-06 0.000E+00

     total cpu time spent up to now is       39.0 secs

     WARNING: integrated charge=    78.00134905, expected=    78.00000000

     total energy              =    -236.29421323 Ry
     estimated scf accuracy    <       0.00017371 Ry

     iteration #  2     ecut=    20.00 Ry     beta= 0.70
     Davidson diagonalization with overlap
     ethr =  2.23E-07,  avg # of iterations =  3.0

     negative rho (up, down):  4.591E-06 0.000E+00

     total cpu time spent up to now is       39.2 secs

     WARNING: integrated charge=    78.00172244, expected=    78.00000000

     total energy              =    -236.29424364 Ry
     estimated scf accuracy    <       0.00001438 Ry

     iteration #  3     ecut=    20.00 Ry     beta= 0.70
     Davidson diagonalization with overlap
     ethr =  1.84E-08,  avg # of iterations =  2.0

     negative rho (up, down):  4.627E-06 0.000E+00

     total cpu time spent up to now is       39.4 secs

     WARNING: integrated charge=    78.00183827, expected=    78.00000000

     total energy              =    -236.29424521 Ry
     estimated scf accuracy    <       0.00000650 Ry

     iteration #  4     ecut=    20.00 Ry     beta= 0.70
     Davidson diagonalization with overlap
     ethr =  8.34E-09,  avg # of iterations =  2.0

     negative rho (up, down):  4.598E-06 0.000E+00

     total cpu time spent up to now is       39.6 secs

     WARNING: integrated charge=    78.00195467, expected=    78.00000000

     total energy              =    -236.29424734 Ry
     estimated scf accuracy    <       0.00000224 Ry

     iteration #  5     ecut=    20.00 Ry     beta= 0.70
     Davidson diagonalization with overlap
     ethr =  2.87E-09,  avg # of iterations =  2.0

     negative rho (up, down):  4.598E-06 0.000E+00

     total cpu time spent up to now is       39.8 secs

     WARNING: integrated charge=    78.00196645, expected=    78.00000000

     total energy              =    -236.29424741 Ry
     estimated scf accuracy    <       0.00000032 Ry

     iteration #  6     ecut=    20.00 Ry     beta= 0.70
     Davidson diagonalization with overlap
     ethr =  4.10E-10,  avg # of iterations =  2.0

     negative rho (up, down):  4.603E-06 0.000E+00

     total cpu time spent up to now is       39.9 secs

     WARNING: integrated charge=    78.00197049, expected=    78.00000000

     total energy              =    -236.29424761 Ry
     estimated scf accuracy    <          5.3E-09 Ry

     iteration #  7     ecut=    20.00 Ry     beta= 0.70
     Davidson diagonalization with overlap
     ethr =  6.76E-12,  avg # of iterations =  3.0

     negative rho (up, down):  4.605E-06 0.000E+00

     total cpu time spent up to now is       40.2 secs

     WARNING: integrated charge=    78.00197176, expected=    78.00000000

     total energy              =    -236.29424756 Ry
     estimated scf accuracy    <          2.2E-09 Ry

     iteration #  8     ecut=    20.00 Ry     beta= 0.70
     Davidson diagonalization with overlap
     ethr =  2.88E-12,  avg # of iterations =  2.0

     negative rho (up, down):  4.605E-06 0.000E+00

     total cpu time spent up to now is       40.3 secs

     WARNING: integrated charge=    78.00197212, expected=    78.00000000

     total energy              =    -236.29424757 Ry
     estimated scf accuracy    <          5.0E-10 Ry

     iteration #  9     ecut=    20.00 Ry     beta= 0.70
     Davidson diagonalization with overlap
     ethr =  6.35E-13,  avg # of iterations =  2.0

     negative rho (up, down):  4.605E-06 0.000E+00

     total cpu time spent up to now is       40.5 secs

     End of self-consistent calculation

          k = 0.0000 0.0000 0.0000 (  1774 PWs)   bands (ev):

   -21.7412 -18.3249 -16.1787 -16.1689 -16.0555 -15.9269 -15.8471 -14.7131
   -11.8614 -11.7133 -11.5163 -11.4900  -9.7589  -9.5669  -9.0850  -9.0050
    -8.8138  -8.7085  -8.6707  -8.5879  -6.4866  -5.7716  -5.4319  -5.2835
    -5.0545  -5.0067  -4.7058  -4.6931  -3.8767  -3.8329  -3.7479  -3.5792
    -3.5251  -2.3910  -2.2345  -2.0595  -1.3432  -0.3770   0.7122   1.4141
     2.0663   3.7154   4.1492   5.5867   5.8443   6.0180   6.0470

     the Fermi energy is     1.1513 ev

     WARNING: integrated charge=    78.00197234, expected=    78.00000000

!    total energy              =    -236.29424757 Ry
     estimated scf accuracy    <          5.1E-11 Ry
     smearing contrib. (-TS)   =       0.00001519 Ry
     internal energy E=F+TS    =    -236.29426276 Ry

     The total energy is F=E-TS. E is the sum of the following terms:
     one-electron contribution =    -544.65523748 Ry
     hartree contribution      =     294.25848270 Ry
     xc contribution           =     -70.12193598 Ry
     ewald contribution        =      84.22442801 Ry

     convergence has been achieved in   9 iterations

     Forces acting on atoms (cartesian axes, Ry/au):

     atom    1 type  1   force =     0.00010498   -0.00045614   -0.00017862
     atom    2 type  1   force =     0.00130425   -0.00027103    0.00020162
     atom    3 type  1   force =     0.00043386    0.00162455    0.00006921
     atom    4 type  1   force =     0.00053187   -0.00036897   -0.00021272
     atom    5 type  1   force =     0.00010702   -0.00088713    0.00016362
     atom    6 type  1   force =     0.00095798    0.00028360    0.00015247
     atom    7 type  1   force =     0.00028899   -0.00020654    0.00022867
     atom    8 type  1   force =    -0.00031882   -0.00019190    0.00006134
     atom    9 type  1   force =    -0.00026892   -0.00005086   -0.00001123
     atom   10 type  1   force =    -0.00097101    0.00093985   -0.00012184
     atom   11 type  1   force =    -0.00108527   -0.00070223   -0.00005675
     atom   12 type  1   force =    -0.00031647   -0.00088616    0.00018003
     atom   13 type  1   force =     0.00042521    0.00072945   -0.00000375
     atom   14 type  1   force =    -0.00016112    0.00067903    0.00020976
     atom   15 type  1   force =    -0.00053578    0.00023813   -0.00026351
     atom   16 type  1   force =    -0.00041151   -0.00030764    0.00008690
     atom   17 type  1   force =    -0.00002732   -0.00044508   -0.00002014
     atom   18 type  1   force =    -0.00002403    0.00032758   -0.00022500
     atom   19 type  2   force =    -0.00003389   -0.00004852   -0.00026006

     Total force =     0.003794     Total SCF correction =     0.000017
     Energy error            =      4.5E-05 Ry
     Gradient error          =      1.6E-03 Ry/Bohr

     number of scf cycles    =  20
     number of bfgs steps    =  19

     energy             old  =    -236.2942024535 Ry
     energy             new  =    -236.2942475704 Ry

     CASE: energy            _new < energy            _old

     new trust radius        =       0.0016046422 bohr
     new conv_thr            =            1.0E-10 Ry


ATOMIC_POSITIONS (angstrom)
C            -0.0137959762       -0.0145035496       -0.0286820014
C            -1.2085934324        2.1119580953       -0.1143731434
C            -2.4629636742        4.2843135668       -0.1739231298
C             2.4768578205       -0.0147148457       -0.0283102276
C             1.2312125990        2.1164634723        0.3089168610
C            -0.0340277935        4.2618967470        0.0337480706
C             4.9260282059        0.0139573254       -0.0749408587
C             3.6715885037        2.1119723342       -0.1135700090
C             2.4968890332        4.2619540665        0.0348442971
C            -0.0336792943        1.4259571503        0.0310773995
C            -1.2088868765        3.5757012793       -0.1134728902
C            -2.4629776521        5.6739708804       -0.0764479179
C             2.4968679220        1.4259610519        0.0322682625
C             1.2314269361        3.5708723993        0.3106477761
C            -0.0142913817        5.7025607512       -0.0269498781
C             4.9259541210        1.4036033520       -0.1743436858
C             3.6717212806        3.5758201208       -0.1125101912
C             2.4772464037        5.7024932698       -0.0267453309
O             1.2300010952        2.8418470726        1.6227665972



     Writing config-only to output data dir ./tmp/Graphene3x3-O_PBE.save/
     NEW-OLD atomic charge density approx. for the potential

     negative rho (up, down):  4.584E-06 0.000E+00
     extrapolated charge   78.00197, renormalised to   78.00000

     total cpu time spent up to now is       40.8 secs

     per-process dynamical memory:    85.0 Mb

     Self-consistent Calculation

     iteration #  1     ecut=    20.00 Ry     beta= 0.70
     Davidson diagonalization with overlap
     ethr =  1.00E-06,  avg # of iterations =  2.0

     Threshold (ethr) on eigenvalues was too large:
     Diagonalizing with lowered threshold

     Davidson diagonalization with overlap
     ethr =  4.97E-09,  avg # of iterations =  3.0

     negative rho (up, down):  4.597E-06 0.000E+00

     total cpu time spent up to now is       41.0 secs

     WARNING: integrated charge=    78.00138571, expected=    78.00000000

     total energy              =    -236.29425003 Ry
     estimated scf accuracy    <       0.00000449 Ry

     iteration #  2     ecut=    20.00 Ry     beta= 0.70
     Davidson diagonalization with overlap
     ethr =  5.76E-09,  avg # of iterations =  2.0

     negative rho (up, down):  4.607E-06 0.000E+00

     total cpu time spent up to now is       41.2 secs

     WARNING: integrated charge=    78.00170562, expected=    78.00000000

     total energy              =    -236.29425090 Ry
     estimated scf accuracy    <       0.00000085 Ry

     iteration #  3     ecut=    20.00 Ry     beta= 0.70
     Davidson diagonalization with overlap
     ethr =  1.10E-09,  avg # of iterations =  2.0

     negative rho (up, down):  4.611E-06 0.000E+00

     total cpu time spent up to now is       41.4 secs

     WARNING: integrated charge=    78.00183287, expected=    78.00000000

     total energy              =    -236.29425081 Ry
     estimated scf accuracy    <       0.00000057 Ry

     iteration #  4     ecut=    20.00 Ry     beta= 0.70
     Davidson diagonalization with overlap
     ethr =  7.27E-10,  avg # of iterations =  2.0

     negative rho (up, down):  4.606E-06 0.000E+00

     total cpu time spent up to now is       41.6 secs

     WARNING: integrated charge=    78.00192466, expected=    78.00000000

     total energy              =    -236.29425106 Ry
     estimated scf accuracy    <       0.00000006 Ry

     iteration #  5     ecut=    20.00 Ry     beta= 0.70
     Davidson diagonalization with overlap
     ethr =  7.87E-11,  avg # of iterations =  2.0

     negative rho (up, down):  4.602E-06 0.000E+00

     total cpu time spent up to now is       41.8 secs

     WARNING: integrated charge=    78.00195853, expected=    78.00000000

     total energy              =    -236.29425109 Ry
     estimated scf accuracy    <       0.00000001 Ry

     iteration #  6     ecut=    20.00 Ry     beta= 0.70
     Davidson diagonalization with overlap
     ethr =  1.61E-11,  avg # of iterations =  2.0

     negative rho (up, down):  4.601E-06 0.000E+00

     total cpu time spent up to now is       41.9 secs

     WARNING: integrated charge=    78.00197103, expected=    78.00000000

     total energy              =    -236.29425105 Ry
     estimated scf accuracy    <          1.3E-09 Ry

     iteration #  7     ecut=    20.00 Ry     beta= 0.70
     Davidson diagonalization with overlap
     ethr =  1.69E-12,  avg # of iterations =  2.0

     negative rho (up, down):  4.602E-06 0.000E+00

     total cpu time spent up to now is       42.1 secs

     WARNING: integrated charge=    78.00197643, expected=    78.00000000

     total energy              =    -236.29425106 Ry
     estimated scf accuracy    <          3.7E-10 Ry

     iteration #  8     ecut=    20.00 Ry     beta= 0.70
     Davidson diagonalization with overlap
     ethr =  4.73E-13,  avg # of iterations =  2.0

     negative rho (up, down):  4.601E-06 0.000E+00

     total cpu time spent up to now is       42.3 secs

     End of self-consistent calculation

          k = 0.0000 0.0000 0.0000 (  1774 PWs)   bands (ev):

   -21.7405 -18.3250 -16.1786 -16.1697 -16.0559 -15.9271 -15.8468 -14.7133
   -11.8617 -11.7133 -11.5158 -11.4902  -9.7592  -9.5666  -9.0852  -9.0043
    -8.8143  -8.7086  -8.6702  -8.5884  -6.4868  -5.7711  -5.4307  -5.2847
    -5.0544  -5.0075  -4.7059  -4.6935  -3.8757  -3.8320  -3.7487  -3.5795
    -3.5250  -2.3907  -2.2349  -2.0612  -1.3435  -0.3753   0.7126   1.4143
     2.0673   3.7151   4.1494   5.5862   5.8454   6.0189   6.0474

     the Fermi energy is     1.1516 ev

     WARNING: integrated charge=    78.00197860, expected=    78.00000000

!    total energy              =    -236.29425106 Ry
     estimated scf accuracy    <          2.7E-11 Ry
     smearing contrib. (-TS)   =       0.00001524 Ry
     internal energy E=F+TS    =    -236.29426630 Ry

     The total energy is F=E-TS. E is the sum of the following terms:
     one-electron contribution =    -544.68443537 Ry
     hartree contribution      =     294.27336790 Ry
     xc contribution           =     -70.12244360 Ry
     ewald contribution        =      84.23924477 Ry

     convergence has been achieved in   8 iterations

     Forces acting on atoms (cartesian axes, Ry/au):

     atom    1 type  1   force =    -0.00025126    0.00002776   -0.00006303
     atom    2 type  1   force =    -0.00025441   -0.00022824    0.00002539
     atom    3 type  1   force =    -0.00018332   -0.00016048   -0.00002461
     atom    4 type  1   force =     0.00000949    0.00003383   -0.00007745
     atom    5 type  1   force =    -0.00003112    0.00029665    0.00024771
     atom    6 type  1   force =    -0.00039486   -0.00019731   -0.00005185
     atom    7 type  1   force =    -0.00011369   -0.00004733    0.00007174
     atom    8 type  1   force =    -0.00004154   -0.00015349    0.00002455
     atom    9 type  1   force =     0.00004008   -0.00007142   -0.00005639
     atom   10 type  1   force =     0.00006218   -0.00008416   -0.00005422
     atom   11 type  1   force =     0.00028694    0.00037832    0.00008012
     atom   12 type  1   force =     0.00017676    0.00022215    0.00010680
     atom   13 type  1   force =     0.00016247   -0.00000960   -0.00005645
     atom   14 type  1   force =     0.00005028   -0.00027860    0.00031131
     atom   15 type  1   force =     0.00002739    0.00001140   -0.00011196
     atom   16 type  1   force =     0.00016269   -0.00000722    0.00005190
     atom   17 type  1   force =     0.00009071    0.00032327   -0.00003604
     atom   18 type  1   force =     0.00022983    0.00001694   -0.00009017
     atom   19 type  2   force =    -0.00002865   -0.00007246   -0.00029735

     Total force =     0.001230     Total SCF correction =     0.000009
     Energy error            =      3.5E-06 Ry
     Gradient error          =      3.9E-04 Ry/Bohr

     bfgs converged in  21 scf cycles and  20 bfgs steps
     (criteria: energy <  1.0E-04 Ry, force <  1.0E-03 Ry/Bohr)

     End of BFGS Geometry Optimization

     Final energy             =    -236.2942510617 Ry

     File ./tmp/Graphene3x3-O_PBE.bfgs deleted, as requested
Begin final coordinates

ATOMIC_POSITIONS (angstrom)
C            -0.0137959762       -0.0145035496       -0.0286820014
C            -1.2085934324        2.1119580953       -0.1143731434
C            -2.4629636742        4.2843135668       -0.1739231298
C             2.4768578205       -0.0147148457       -0.0283102276
C             1.2312125990        2.1164634723        0.3089168610
C            -0.0340277935        4.2618967470        0.0337480706
C             4.9260282059        0.0139573254       -0.0749408587
C             3.6715885037        2.1119723342       -0.1135700090
C             2.4968890332        4.2619540665        0.0348442971
C            -0.0336792943        1.4259571503        0.0310773995
C            -1.2088868765        3.5757012793       -0.1134728902
C            -2.4629776521        5.6739708804       -0.0764479179
C             2.4968679220        1.4259610519        0.0322682625
C             1.2314269361        3.5708723993        0.3106477761
C            -0.0142913817        5.7025607512       -0.0269498781
C             4.9259541210        1.4036033520       -0.1743436858
C             3.6717212806        3.5758201208       -0.1125101912
C             2.4772464037        5.7024932698       -0.0267453309
O             1.2300010952        2.8418470726        1.6227665972
End final coordinates



     Writing all to output data dir ./tmp/Graphene3x3-O_PBE.save/

     init_run     :      0.63s CPU      0.68s WALL (       1 calls)
     electrons    :     35.65s CPU     35.94s WALL (      21 calls)
     update_pot   :      1.93s CPU      1.93s WALL (      20 calls)
     forces       :      2.70s CPU      2.73s WALL (      21 calls)

     Called by init_run:
     wfcinit      :      0.04s CPU      0.05s WALL (       1 calls)
     potinit      :      0.27s CPU      0.29s WALL (       1 calls)
     hinit0       :      0.29s CPU      0.29s WALL (       1 calls)

     Called by electrons:
     c_bands      :     12.29s CPU     12.44s WALL (     195 calls)
     sum_band     :      7.12s CPU      7.19s WALL (     195 calls)
     v_of_rho     :     10.71s CPU     10.76s WALL (     210 calls)
     newd         :      5.26s CPU      5.29s WALL (     210 calls)
     mix_rho      :      0.89s CPU      0.89s WALL (     195 calls)

     Called by c_bands:
     init_us_2    :      0.22s CPU      0.22s WALL (     391 calls)
     init_us_2:cp :      0.22s CPU      0.22s WALL (     391 calls)
     regterg      :     11.79s CPU     11.93s WALL (     195 calls)

     Called by *egterg:
     rdiaghg      :      1.02s CPU      1.09s WALL (     668 calls)
     h_psi        :      9.19s CPU      9.27s WALL (     695 calls)
     s_psi        :      0.36s CPU      0.36s WALL (     695 calls)
     g_psi        :      0.05s CPU      0.05s WALL (     499 calls)

     Called by h_psi:
     h_psi:calbec :      0.47s CPU      0.49s WALL (     695 calls)
     vloc_psi     :      8.29s CPU      8.36s WALL (     695 calls)
     add_vuspsi   :      0.38s CPU      0.38s WALL (     695 calls)

     General routines
     calbec       :      0.70s CPU      0.72s WALL (     974 calls)
     fft          :      4.52s CPU      4.54s WALL (    2336 calls)
     ffts         :      0.38s CPU      0.38s WALL (     405 calls)
     fftw         :      8.03s CPU      8.11s WALL (   29178 calls)
     interpolate  :      0.76s CPU      0.76s WALL (     210 calls)

     Parallel routines

     PWSCF        :     42.02s CPU     42.42s WALL


   This run was terminated on:  23:26:36   6Jun2023            

=------------------------------------------------------------------------------=
   JOB DONE.
=------------------------------------------------------------------------------=
