
     Program PHONON v.7.2 starts on 30May2023 at 12:46:35 

     This program is part of the open-source Quantum ESPRESSO suite
     for quantum simulation of materials; please cite
         "P. Giannozzi et al., J. Phys.:Condens. Matter 21 395502 (2009);
         "P. Giannozzi et al., J. Phys.:Condens. Matter 29 465901 (2017);
         "P. Giannozzi et al., J. Chem. Phys. 152 154105 (2020);
          URL http://www.quantum-espresso.org", 
     in publications or presentations arising from this work. More details at
     http://www.quantum-espresso.org/quote

     Parallel version (MPI), running on     4 processors

     MPI processes distributed on     1 nodes
     831 MiB available memory on the printing compute node when the environment starts

     Reading input from AlAs.ph.in

     Reading xml data from directory:

     ./tmp/AlAs.save/

     R & G space division:  proc/nbgrp/npool/nimage =       4
     Subspace diagonalization in iterative solution of the eigenvalue problem:
     a serial algorithm will be used


     IMPORTANT: XC functional enforced from input :
     Exchange-correlation= PZ
                           (   1   1   0   0   0   0   0)
     Any further DFT definition will be discarded
     Please, verify this is what you really want


     Parallelization info
     --------------------
     sticks:   dense  smooth     PW     G-vecs:    dense   smooth      PW
     Min          60      60     20                  610      610     114
     Max          61      61     22                  613      613     115
     Sum         241     241     85                 2445     2445     459

     Using Slab Decomposition

     Reading collected, re-writing distributed wavefunctions in ./tmp/


     Dynamical matrices for ( 4, 4, 4)  uniform grid of q-points
     (   8 q-points):
       N         xq(1)         xq(2)         xq(3) 
       1   0.000000000   0.000000000   0.000000000
       2  -0.250000000   0.250000000  -0.250000000
       3   0.500000000  -0.500000000   0.500000000
       4   0.000000000   0.500000000   0.000000000
       5   0.750000000  -0.250000000   0.750000000
       6   0.500000000   0.000000000   0.500000000
       7   0.000000000  -1.000000000   0.000000000
       8  -0.500000000  -1.000000000   0.000000000

     Calculation of q =    0.0000000   0.0000000   0.0000000

     Phonons on a uniform q-grid                                                

     bravais-lattice index     =            2
     lattice parameter (alat)  =      10.5000  a.u.
     unit-cell volume          =     289.4062 (a.u.)^3
     number of atoms/cell      =            2
     number of atomic types    =            2
     kinetic-energy cut-off    =      16.0000  Ry
     charge density cut-off    =      64.0000  Ry
     convergence threshold     =      1.0E-14
     beta                      =       0.7000
     number of iterations used =            4
     Exchange-correlation= PZ
                           (   1   1   0   0   0   0   0)


     celldm(1)=   10.50000  celldm(2)=    0.00000  celldm(3)=    0.00000
     celldm(4)=    0.00000  celldm(5)=    0.00000  celldm(6)=    0.00000

     crystal axes: (cart. coord. in units of alat)
               a(1) = ( -0.5000  0.0000  0.5000 )  
               a(2) = (  0.0000  0.5000  0.5000 )  
               a(3) = ( -0.5000  0.5000  0.0000 )  

     reciprocal axes: (cart. coord. in units 2 pi/alat)
               b(1) = ( -1.0000 -1.0000  1.0000 )  
               b(2) = (  1.0000  1.0000  1.0000 )  
               b(3) = ( -1.0000  1.0000 -1.0000 )  


     Atoms inside the unit cell: 

     Cartesian axes

     site n.  atom      mass           positions (alat units)
        1     Al  26.9800   tau(    1) = (    0.00000    0.00000    0.00000  )
        2     As  74.9200   tau(    2) = (    0.25000    0.25000    0.25000  )

     Computing dynamical matrix for 
                    q = (   0.0000000   0.0000000   0.0000000 )

     25 Sym.Ops. (with q -> -q+G )


     G cutoff =  178.7306  (    611 G-vectors)     FFT grid: ( 20, 20, 20)
     number of k points=     2

     PseudoPot. # 1 for Al read from file:
     ../../pseudo/Al.pz-vbc.UPF
     MD5 check sum: 69dcd8cd7cc1bedf536afd524f174f6a
     Pseudo is Norm-conserving, Zval =  3.0
     Generated by new atomic code, or converted to UPF format
     Using radial grid of  171 points,  2 beta functions with: 
                l(1) =   0
                l(2) =   1

     PseudoPot. # 2 for As read from file:
     ../../pseudo/As.pz-bhs.UPF
     MD5 check sum: d9127a8b584737f42ec2fe47e3acdea8
     Pseudo is Norm-conserving, Zval =  5.0
     Generated by new atomic code, or converted to UPF format
     Using radial grid of  525 points,  2 beta functions with: 
                l(1) =   0
                l(2) =   1

     Mode symmetry, T_d (-43m)  point group:


     Electric field:
     Dielectric constant
     Born effective charges in two ways 


     Atomic displacements:
     There are    2 irreducible representations

     Representation     1      3 modes -  To be done

     Representation     2      3 modes -  To be done



     Alpha used in Ewald sum =   0.7000
     PHONON       :      0.17s CPU      0.18s WALL


     Electric Fields Calculation

      iter #   1 total cpu time :     0.2 secs   av.it.:   6.0
      thresh= 1.000E-02 alpha_mix =  0.700 |ddv_scf|^2 =  1.326E-06

      iter #   2 total cpu time :     0.3 secs   av.it.:   9.3
      thresh= 1.152E-04 alpha_mix =  0.700 |ddv_scf|^2 =  6.509E-08

      iter #   3 total cpu time :     0.3 secs   av.it.:   9.3
      thresh= 2.551E-05 alpha_mix =  0.700 |ddv_scf|^2 =  6.401E-10

      iter #   4 total cpu time :     0.3 secs   av.it.:   9.7
      thresh= 2.530E-06 alpha_mix =  0.700 |ddv_scf|^2 =  3.108E-12

      iter #   5 total cpu time :     0.3 secs   av.it.:   9.0
      thresh= 1.763E-07 alpha_mix =  0.700 |ddv_scf|^2 =  1.543E-14

      iter #   6 total cpu time :     0.3 secs   av.it.:   9.7
      thresh= 1.242E-08 alpha_mix =  0.700 |ddv_scf|^2 =  1.670E-16

     End of electric fields calculation

          Dielectric constant in cartesian axis 

          (      13.743997537      -0.000000000      -0.000000000 )
          (      -0.000000000      13.743997537       0.000000000 )
          (      -0.000000000       0.000000000      13.743997537 )

          Effective charges (d Force / dE) in cartesian axis without acoustic sum rule applied (asr)

           atom      1   Al Mean Z*:        1.88275
      Ex  (        1.88275        0.00000        0.00000 )
      Ey  (        0.00000        1.88275        0.00000 )
      Ez  (       -0.00000        0.00000        1.88275 )
           atom      2   As Mean Z*:       -3.23400
      Ex  (       -3.23400        0.00000       -0.00000 )
      Ey  (        0.00000       -3.23400       -0.00000 )
      Ez  (       -0.00000       -0.00000       -3.23400 )

          Effective charges Sum: Mean:       -1.35125
             -1.35125        0.00000       -0.00000
              0.00000       -1.35125       -0.00000
             -0.00000       -0.00000       -1.35125

          Effective charges (d Force / dE) in cartesian axis with asr applied: 
           atom      1   Al Mean Z*:        2.55837
      E*x (        2.55837       -0.00000        0.00000 )
      E*y (       -0.00000        2.55837        0.00000 )
      E*z (        0.00000        0.00000        2.55837 )
           atom      2   As Mean Z*:       -2.55837
      E*x (       -2.55837        0.00000       -0.00000 )
      E*y (        0.00000       -2.55837       -0.00000 )
      E*z (       -0.00000       -0.00000       -2.55837 )


     Representation #   1 modes #   1   2   3

     Self-consistent Calculation

      iter #   1 total cpu time :     0.3 secs   av.it.:   5.7
      thresh= 1.000E-02 alpha_mix =  0.700 |ddv_scf|^2 =  4.663E-07

      iter #   2 total cpu time :     0.4 secs   av.it.:   9.8
      thresh= 6.829E-05 alpha_mix =  0.700 |ddv_scf|^2 =  2.274E-08

      iter #   3 total cpu time :     0.4 secs   av.it.:   9.7
      thresh= 1.508E-05 alpha_mix =  0.700 |ddv_scf|^2 =  3.796E-11

      iter #   4 total cpu time :     0.4 secs   av.it.:   9.5
      thresh= 6.161E-07 alpha_mix =  0.700 |ddv_scf|^2 =  7.213E-13

      iter #   5 total cpu time :     0.4 secs   av.it.:   9.5
      thresh= 8.493E-08 alpha_mix =  0.700 |ddv_scf|^2 =  7.416E-15

     End of self-consistent calculation

     Convergence has been achieved 


     Representation #   2 modes #   4   5   6

     Self-consistent Calculation

      iter #   1 total cpu time :     0.5 secs   av.it.:   5.0
      thresh= 1.000E-02 alpha_mix =  0.700 |ddv_scf|^2 =  2.917E-08

      iter #   2 total cpu time :     0.5 secs   av.it.:  10.0
      thresh= 1.708E-05 alpha_mix =  0.700 |ddv_scf|^2 =  3.284E-10

      iter #   3 total cpu time :     0.5 secs   av.it.:   9.0
      thresh= 1.812E-06 alpha_mix =  0.700 |ddv_scf|^2 =  3.027E-11

      iter #   4 total cpu time :     0.5 secs   av.it.:   9.5
      thresh= 5.502E-07 alpha_mix =  0.700 |ddv_scf|^2 =  1.311E-12

      iter #   5 total cpu time :     0.5 secs   av.it.:   9.5
      thresh= 1.145E-07 alpha_mix =  0.700 |ddv_scf|^2 =  4.743E-16

     End of self-consistent calculation

     Convergence has been achieved 

     Number of q in the star =    1
     List of q in the star:
          1   0.000000000   0.000000000   0.000000000

          Dielectric constant in cartesian axis 

          (      13.743997537      -0.000000000      -0.000000000 )
          (      -0.000000000      13.743997537       0.000000000 )
          (      -0.000000000       0.000000000      13.743997537 )

          Effective charges (d Force / dE) in cartesian axis without acoustic sum rule applied (asr)

           atom      1   Al Mean Z*:        1.88275
      Ex  (        1.88275        0.00000        0.00000 )
      Ey  (        0.00000        1.88275        0.00000 )
      Ez  (       -0.00000        0.00000        1.88275 )
           atom      2   As Mean Z*:       -3.23400
      Ex  (       -3.23400        0.00000       -0.00000 )
      Ey  (        0.00000       -3.23400       -0.00000 )
      Ez  (       -0.00000       -0.00000       -3.23400 )

          Effective charges Sum: Mean:       -1.35125
             -1.35125        0.00000       -0.00000
              0.00000       -1.35125       -0.00000
             -0.00000       -0.00000       -1.35125

          Effective charges (d Force / dE) in cartesian axis with asr applied: 
           atom      1   Al Mean Z*:        2.55837
      E*x (        2.55837       -0.00000        0.00000 )
      E*y (       -0.00000        2.55837        0.00000 )
      E*z (        0.00000        0.00000        2.55837 )
           atom      2   As Mean Z*:       -2.55837
      E*x (       -2.55837        0.00000       -0.00000 )
      E*y (        0.00000       -2.55837       -0.00000 )
      E*z (       -0.00000       -0.00000       -2.55837 )

          Effective charges (d P / du) in cartesian axis 

           atom      1   Al 
      Px  (        1.88292       -0.00000       -0.00000 )
      Py  (       -0.00000        1.88292        0.00000 )
      Pz  (       -0.00000        0.00000        1.88292 )
           atom      2   As 
      Px  (       -3.23356        0.00000        0.00000 )
      Py  (        0.00000       -3.23356       -0.00000 )
      Pz  (        0.00000       -0.00000       -3.23356 )

     Diagonalizing the dynamical matrix

     q = (    0.000000000   0.000000000   0.000000000 ) 

 **************************************************************************
     freq (    1) =       0.151928 [THz] =       5.067777 [cm-1]
     freq (    2) =       0.151928 [THz] =       5.067777 [cm-1]
     freq (    3) =       0.151928 [THz] =       5.067777 [cm-1]
     freq (    4) =      11.258171 [THz] =     375.532153 [cm-1]
     freq (    5) =      11.258171 [THz] =     375.532153 [cm-1]
     freq (    6) =      11.258171 [THz] =     375.532153 [cm-1]
 **************************************************************************

     Mode symmetry, T_d (-43m)  point group:

     freq (   1-   3) =          5.1  [cm-1]   --> T_2  G_15 P_4   I+R
     freq (   4-   6) =        375.5  [cm-1]   --> T_2  G_15 P_4   I+R

     Calculation of q =   -0.2500000   0.2500000  -0.2500000

     Parallelization info
     --------------------
     sticks:   dense  smooth     PW     G-vecs:    dense   smooth      PW
     Min          60      60     21                  610      610     132
     Max          61      61     22                  613      613     135
     Sum         241     241     85                 2445     2445     531

     Using Slab Decomposition


     Title: 
     Phonons on a uniform q-grid                                                


     bravais-lattice index     =            2
     lattice parameter (alat)  =      10.5000  a.u.
     unit-cell volume          =     289.4062 (a.u.)^3
     number of atoms/cell      =            2
     number of atomic types    =            2
     number of electrons       =         8.00
     number of Kohn-Sham states=            4
     kinetic-energy cutoff     =      16.0000  Ry
     charge density cutoff     =      64.0000  Ry
     Exchange-correlation= PZ
                           (   1   1   0   0   0   0   0)

     celldm(1)=  10.500000  celldm(2)=   0.000000  celldm(3)=   0.000000
     celldm(4)=   0.000000  celldm(5)=   0.000000  celldm(6)=   0.000000

     crystal axes: (cart. coord. in units of alat)
               a(1) = (  -0.500000   0.000000   0.500000 )  
               a(2) = (   0.000000   0.500000   0.500000 )  
               a(3) = (  -0.500000   0.500000   0.000000 )  

     reciprocal axes: (cart. coord. in units 2 pi/alat)
               b(1) = ( -1.000000 -1.000000  1.000000 )  
               b(2) = (  1.000000  1.000000  1.000000 )  
               b(3) = ( -1.000000  1.000000 -1.000000 )  


     PseudoPot. # 1 for Al read from file:
     ../../pseudo/Al.pz-vbc.UPF
     MD5 check sum: 69dcd8cd7cc1bedf536afd524f174f6a
     Pseudo is Norm-conserving, Zval =  3.0
     Generated by new atomic code, or converted to UPF format
     Using radial grid of  171 points,  2 beta functions with: 
                l(1) =   0
                l(2) =   1

     PseudoPot. # 2 for As read from file:
     ../../pseudo/As.pz-bhs.UPF
     MD5 check sum: d9127a8b584737f42ec2fe47e3acdea8
     Pseudo is Norm-conserving, Zval =  5.0
     Generated by new atomic code, or converted to UPF format
     Using radial grid of  525 points,  2 beta functions with: 
                l(1) =   0
                l(2) =   1

     atomic species   valence    mass     pseudopotential
        Al             3.00    26.98000     Al( 1.00)
        As             5.00    74.92000     As( 1.00)

     24 Sym. Ops. (no inversion) found



   Cartesian axes

     site n.     atom                  positions (alat units)
         1           Al  tau(   1) = (   0.0000000   0.0000000   0.0000000  )
         2           As  tau(   2) = (   0.2500000   0.2500000   0.2500000  )

     number of k points=    20
                       cart. coord. in units 2pi/alat
        k(    1) = (   0.2500000   0.2500000   0.2500000), wk =   0.1875000
        k(    2) = (   0.0000000   0.5000000   0.0000000), wk =   0.0000000
        k(    3) = (   0.2500000   0.2500000   0.7500000), wk =   0.3750000
        k(    4) = (   0.0000000   0.5000000   0.5000000), wk =   0.0000000
        k(    5) = (  -0.2500000   0.2500000  -0.2500000), wk =   0.0625000
        k(    6) = (  -0.5000000   0.5000000  -0.5000000), wk =   0.0000000
        k(    7) = (  -0.2500000  -0.2500000  -0.2500000), wk =   0.1875000
        k(    8) = (  -0.5000000   0.0000000  -0.5000000), wk =   0.0000000
        k(    9) = (   0.2500000  -0.2500000   0.2500000), wk =   0.0625000
        k(   10) = (   0.0000000   0.0000000   0.0000000), wk =   0.0000000
        k(   11) = (  -0.7500000  -0.2500000   0.2500000), wk =   0.1875000
        k(   12) = (  -1.0000000   0.0000000   0.0000000), wk =   0.0000000
        k(   13) = (  -0.7500000   0.2500000  -0.2500000), wk =   0.1875000
        k(   14) = (  -1.0000000   0.5000000  -0.5000000), wk =   0.0000000
        k(   15) = (  -0.2500000  -0.2500000  -0.7500000), wk =   0.3750000
        k(   16) = (  -0.5000000   0.0000000  -1.0000000), wk =   0.0000000
        k(   17) = (   0.2500000  -0.2500000   0.7500000), wk =   0.1875000
        k(   18) = (   0.0000000   0.0000000   0.5000000), wk =   0.0000000
        k(   19) = (  -0.2500000   0.2500000   0.7500000), wk =   0.1875000
        k(   20) = (  -0.5000000   0.5000000   0.5000000), wk =   0.0000000

     Dense  grid:     2445 G-vectors     FFT dimensions: (  20,  20,  20)

     Estimated max dynamical RAM per process >       0.42 MB

     Estimated total dynamical RAM >       1.66 MB

     The potential is recalculated from file :
     ./tmp/_ph0/AlAs.save/charge-density

     Starting wfcs are    8 atomic wfcs

     Band Structure Calculation
     Davidson diagonalization with overlap

     ethr =  1.25E-10,  avg # of iterations = 11.0

     total cpu time spent up to now is        0.1 secs

     End of band structure calculation

          k = 0.2500 0.2500 0.2500 (   311 PWs)   bands (ev):

    -6.3574   1.7036   4.6970   4.6970

          k = 0.0000 0.5000 0.0000 (   311 PWs)   bands (ev):

    -6.1429   1.9397   3.7848   3.7848

          k = 0.2500 0.2500 0.7500 (   311 PWs)   bands (ev):

    -5.1818  -0.0414   2.3126   3.5086

          k = 0.0000 0.5000 0.5000 (   315 PWs)   bands (ev):

    -5.5286   0.5005   2.1485   4.2664

          k =-0.2500 0.2500-0.2500 (   311 PWs)   bands (ev):

    -6.3574   1.7036   4.6970   4.6970

          k =-0.5000 0.5000-0.5000 (   302 PWs)   bands (ev):

    -5.4217  -0.6402   4.3484   4.3484

          k =-0.2500-0.2500-0.2500 (   311 PWs)   bands (ev):

    -6.3574   1.7036   4.6970   4.6970

          k =-0.5000 0.0000-0.5000 (   315 PWs)   bands (ev):

    -5.5286   0.5005   2.1485   4.2664

          k = 0.2500-0.2500 0.2500 (   311 PWs)   bands (ev):

    -6.3574   1.7036   4.6970   4.6970

          k = 0.0000 0.0000 0.0000 (   331 PWs)   bands (ev):

    -6.9796   5.1762   5.1762   5.1762

          k =-0.7500-0.2500 0.2500 (   311 PWs)   bands (ev):

    -5.1818  -0.0414   2.3126   3.5086

          k =-1.0000 0.0000 0.0000 (   302 PWs)   bands (ev):

    -4.8215  -0.4470   2.9274   2.9274

          k =-0.7500 0.2500-0.2500 (   311 PWs)   bands (ev):

    -5.1818  -0.0414   2.3126   3.5086

          k =-1.0000 0.5000-0.5000 (   315 PWs)   bands (ev):

    -5.5286   0.5005   2.1485   4.2664

          k =-0.2500-0.2500-0.7500 (   311 PWs)   bands (ev):

    -5.1818  -0.0414   2.3126   3.5086

          k =-0.5000 0.0000-1.0000 (   308 PWs)   bands (ev):

    -4.7851  -0.0517   1.7950   2.1910

          k = 0.2500-0.2500 0.7500 (   311 PWs)   bands (ev):

    -5.1818  -0.0414   2.3126   3.5086

          k = 0.0000 0.0000 0.5000 (   311 PWs)   bands (ev):

    -6.1429   1.9397   3.7848   3.7848

          k =-0.2500 0.2500 0.7500 (   311 PWs)   bands (ev):

    -5.1818  -0.0414   2.3126   3.5086

          k =-0.5000 0.5000 0.5000 (   302 PWs)   bands (ev):

    -5.4217  -0.6402   4.3484   4.3484

     highest occupied level (ev):     4.6970

     Writing config to output data dir ./tmp/_ph0/AlAs.save/

     Phonons on a uniform q-grid                                                

     bravais-lattice index     =            2
     lattice parameter (alat)  =      10.5000  a.u.
     unit-cell volume          =     289.4062 (a.u.)^3
     number of atoms/cell      =            2
     number of atomic types    =            2
     kinetic-energy cut-off    =      16.0000  Ry
     charge density cut-off    =      64.0000  Ry
     convergence threshold     =      1.0E-14
     beta                      =       0.7000
     number of iterations used =            4
     Exchange-correlation= PZ
                           (   1   1   0   0   0   0   0)


     celldm(1)=   10.50000  celldm(2)=    0.00000  celldm(3)=    0.00000
     celldm(4)=    0.00000  celldm(5)=    0.00000  celldm(6)=    0.00000

     crystal axes: (cart. coord. in units of alat)
               a(1) = ( -0.5000  0.0000  0.5000 )  
               a(2) = (  0.0000  0.5000  0.5000 )  
               a(3) = ( -0.5000  0.5000  0.0000 )  

     reciprocal axes: (cart. coord. in units 2 pi/alat)
               b(1) = ( -1.0000 -1.0000  1.0000 )  
               b(2) = (  1.0000  1.0000  1.0000 )  
               b(3) = ( -1.0000  1.0000 -1.0000 )  


     Atoms inside the unit cell: 

     Cartesian axes

     site n.  atom      mass           positions (alat units)
        1     Al  26.9800   tau(    1) = (    0.00000    0.00000    0.00000  )
        2     As  74.9200   tau(    2) = (    0.25000    0.25000    0.25000  )

     Computing dynamical matrix for 
                    q = (  -0.2500000   0.2500000  -0.2500000 )

      6 Sym.Ops. (no q -> -q+G )


     G cutoff =  178.7306  (    611 G-vectors)     FFT grid: ( 20, 20, 20)
     number of k points=    20

     PseudoPot. # 1 for Al read from file:
     ../../pseudo/Al.pz-vbc.UPF
     MD5 check sum: 69dcd8cd7cc1bedf536afd524f174f6a
     Pseudo is Norm-conserving, Zval =  3.0
     Generated by new atomic code, or converted to UPF format
     Using radial grid of  171 points,  2 beta functions with: 
                l(1) =   0
                l(2) =   1

     PseudoPot. # 2 for As read from file:
     ../../pseudo/As.pz-bhs.UPF
     MD5 check sum: d9127a8b584737f42ec2fe47e3acdea8
     Pseudo is Norm-conserving, Zval =  5.0
     Generated by new atomic code, or converted to UPF format
     Using radial grid of  525 points,  2 beta functions with: 
                l(1) =   0
                l(2) =   1

     Mode symmetry, C_3v (3m)   point group:


     Atomic displacements:
     There are    4 irreducible representations

     Representation     1      1 modes -  To be done

     Representation     2      1 modes -  To be done

     Representation     3      2 modes -  To be done

     Representation     4      2 modes -  To be done



     Alpha used in Ewald sum =   0.7000
     PHONON       :      0.61s CPU      0.66s WALL



     Representation #   1 mode #   1

     Self-consistent Calculation

      iter #   1 total cpu time :     0.7 secs   av.it.:   5.6
      thresh= 1.000E-02 alpha_mix =  0.700 |ddv_scf|^2 =  6.514E-04

      iter #   2 total cpu time :     0.7 secs   av.it.:   7.6
      thresh= 2.552E-03 alpha_mix =  0.700 |ddv_scf|^2 =  5.929E-03

      iter #   3 total cpu time :     0.7 secs   av.it.:   6.2
      thresh= 7.700E-03 alpha_mix =  0.700 |ddv_scf|^2 =  2.211E-07

      iter #   4 total cpu time :     0.7 secs   av.it.:   8.2
      thresh= 4.702E-05 alpha_mix =  0.700 |ddv_scf|^2 =  8.137E-09

      iter #   5 total cpu time :     0.7 secs   av.it.:   8.1
      thresh= 9.020E-06 alpha_mix =  0.700 |ddv_scf|^2 =  2.046E-09

      iter #   6 total cpu time :     0.8 secs   av.it.:   7.0
      thresh= 4.523E-06 alpha_mix =  0.700 |ddv_scf|^2 =  3.069E-10

      iter #   7 total cpu time :     0.8 secs   av.it.:   7.4
      thresh= 1.752E-06 alpha_mix =  0.700 |ddv_scf|^2 =  1.867E-11

      iter #   8 total cpu time :     0.8 secs   av.it.:   7.5
      thresh= 4.321E-07 alpha_mix =  0.700 |ddv_scf|^2 =  3.992E-13

      iter #   9 total cpu time :     0.8 secs   av.it.:   7.6
      thresh= 6.318E-08 alpha_mix =  0.700 |ddv_scf|^2 =  1.191E-14

      iter #  10 total cpu time :     0.8 secs   av.it.:   7.7
      thresh= 1.091E-08 alpha_mix =  0.700 |ddv_scf|^2 =  4.606E-16

     End of self-consistent calculation

     Convergence has been achieved 


     Representation #   2 mode #   2

     Self-consistent Calculation

      iter #   1 total cpu time :     0.8 secs   av.it.:   6.2
      thresh= 1.000E-02 alpha_mix =  0.700 |ddv_scf|^2 =  3.084E-03

      iter #   2 total cpu time :     0.9 secs   av.it.:   7.6
      thresh= 5.553E-03 alpha_mix =  0.700 |ddv_scf|^2 =  2.964E-02

      iter #   3 total cpu time :     0.9 secs   av.it.:   6.8
      thresh= 1.000E-02 alpha_mix =  0.700 |ddv_scf|^2 =  6.303E-06

      iter #   4 total cpu time :     0.9 secs   av.it.:   7.2
      thresh= 2.511E-04 alpha_mix =  0.700 |ddv_scf|^2 =  1.362E-07

      iter #   5 total cpu time :     0.9 secs   av.it.:   7.6
      thresh= 3.690E-05 alpha_mix =  0.700 |ddv_scf|^2 =  3.238E-09

      iter #   6 total cpu time :     0.9 secs   av.it.:   7.0
      thresh= 5.691E-06 alpha_mix =  0.700 |ddv_scf|^2 =  5.378E-10

      iter #   7 total cpu time :     0.9 secs   av.it.:   7.1
      thresh= 2.319E-06 alpha_mix =  0.700 |ddv_scf|^2 =  3.701E-11

      iter #   8 total cpu time :     1.0 secs   av.it.:   7.2
      thresh= 6.084E-07 alpha_mix =  0.700 |ddv_scf|^2 =  2.475E-13

      iter #   9 total cpu time :     1.0 secs   av.it.:   7.4
      thresh= 4.975E-08 alpha_mix =  0.700 |ddv_scf|^2 =  6.517E-15

     End of self-consistent calculation

     Convergence has been achieved 


     Representation #   3 modes #   3   4

     Self-consistent Calculation

      iter #   1 total cpu time :     1.0 secs   av.it.:   6.0
      thresh= 1.000E-02 alpha_mix =  0.700 |ddv_scf|^2 =  1.311E-06

      iter #   2 total cpu time :     1.0 secs   av.it.:   9.2
      thresh= 1.145E-04 alpha_mix =  0.700 |ddv_scf|^2 =  9.092E-08

      iter #   3 total cpu time :     1.1 secs   av.it.:   9.2
      thresh= 3.015E-05 alpha_mix =  0.700 |ddv_scf|^2 =  8.879E-11

      iter #   4 total cpu time :     1.1 secs   av.it.:   9.2
      thresh= 9.423E-07 alpha_mix =  0.700 |ddv_scf|^2 =  1.660E-12

      iter #   5 total cpu time :     1.1 secs   av.it.:   9.0
      thresh= 1.288E-07 alpha_mix =  0.700 |ddv_scf|^2 =  1.838E-14

      iter #   6 total cpu time :     1.2 secs   av.it.:   9.4
      thresh= 1.356E-08 alpha_mix =  0.700 |ddv_scf|^2 =  8.602E-17

     End of self-consistent calculation

     Convergence has been achieved 


     Representation #   4 modes #   5   6

     Self-consistent Calculation

      iter #   1 total cpu time :     1.2 secs   av.it.:   5.0
      thresh= 1.000E-02 alpha_mix =  0.700 |ddv_scf|^2 =  1.105E-07

      iter #   2 total cpu time :     1.2 secs   av.it.:   9.3
      thresh= 3.325E-05 alpha_mix =  0.700 |ddv_scf|^2 =  4.449E-09

      iter #   3 total cpu time :     1.3 secs   av.it.:   9.2
      thresh= 6.670E-06 alpha_mix =  0.700 |ddv_scf|^2 =  1.324E-10

      iter #   4 total cpu time :     1.3 secs   av.it.:   9.1
      thresh= 1.151E-06 alpha_mix =  0.700 |ddv_scf|^2 =  6.922E-12

      iter #   5 total cpu time :     1.4 secs   av.it.:   8.8
      thresh= 2.631E-07 alpha_mix =  0.700 |ddv_scf|^2 =  1.111E-15

     End of self-consistent calculation

     Convergence has been achieved 

     Number of q in the star =    4
     List of q in the star:
          1  -0.250000000   0.250000000  -0.250000000
          2   0.250000000  -0.250000000  -0.250000000
          3  -0.250000000  -0.250000000   0.250000000
          4   0.250000000   0.250000000   0.250000000
     In addition there is the -q list: 
          1   0.250000000  -0.250000000   0.250000000
          2  -0.250000000   0.250000000   0.250000000
          3   0.250000000   0.250000000  -0.250000000
          4  -0.250000000  -0.250000000  -0.250000000

     Diagonalizing the dynamical matrix

     q = (   -0.250000000   0.250000000  -0.250000000 ) 

 **************************************************************************
     freq (    1) =       1.758714 [THz] =      58.664393 [cm-1]
     freq (    2) =       1.758714 [THz] =      58.664393 [cm-1]
     freq (    3) =       4.535405 [THz] =     151.284824 [cm-1]
     freq (    4) =      11.004443 [THz] =     367.068719 [cm-1]
     freq (    5) =      11.004443 [THz] =     367.068719 [cm-1]
     freq (    6) =      12.136590 [THz] =     404.833051 [cm-1]
 **************************************************************************

     Mode symmetry, C_3v (3m)   point group:

     freq (   1-   2) =         58.7  [cm-1]   --> E    L_3           
     freq (   3-   3) =        151.3  [cm-1]   --> A_1  L_1           
     freq (   4-   5) =        367.1  [cm-1]   --> E    L_3           
     freq (   6-   6) =        404.8  [cm-1]   --> A_1  L_1           

     Calculation of q =    0.5000000  -0.5000000   0.5000000

     Parallelization info
     --------------------
     sticks:   dense  smooth     PW     G-vecs:    dense   smooth      PW
     Min          60      60     21                  610      610     133
     Max          61      61     22                  613      613     136
     Sum         241     241     85                 2445     2445     537

     Using Slab Decomposition


     Title: 
     Phonons on a uniform q-grid                                                


     bravais-lattice index     =            2
     lattice parameter (alat)  =      10.5000  a.u.
     unit-cell volume          =     289.4062 (a.u.)^3
     number of atoms/cell      =            2
     number of atomic types    =            2
     number of electrons       =         8.00
     number of Kohn-Sham states=            4
     kinetic-energy cutoff     =      16.0000  Ry
     charge density cutoff     =      64.0000  Ry
     Exchange-correlation= PZ
                           (   1   1   0   0   0   0   0)

     celldm(1)=  10.500000  celldm(2)=   0.000000  celldm(3)=   0.000000
     celldm(4)=   0.000000  celldm(5)=   0.000000  celldm(6)=   0.000000

     crystal axes: (cart. coord. in units of alat)
               a(1) = (  -0.500000   0.000000   0.500000 )  
               a(2) = (   0.000000   0.500000   0.500000 )  
               a(3) = (  -0.500000   0.500000   0.000000 )  

     reciprocal axes: (cart. coord. in units 2 pi/alat)
               b(1) = ( -1.000000 -1.000000  1.000000 )  
               b(2) = (  1.000000  1.000000  1.000000 )  
               b(3) = ( -1.000000  1.000000 -1.000000 )  


     PseudoPot. # 1 for Al read from file:
     ../../pseudo/Al.pz-vbc.UPF
     MD5 check sum: 69dcd8cd7cc1bedf536afd524f174f6a
     Pseudo is Norm-conserving, Zval =  3.0
     Generated by new atomic code, or converted to UPF format
     Using radial grid of  171 points,  2 beta functions with: 
                l(1) =   0
                l(2) =   1

     PseudoPot. # 2 for As read from file:
     ../../pseudo/As.pz-bhs.UPF
     MD5 check sum: d9127a8b584737f42ec2fe47e3acdea8
     Pseudo is Norm-conserving, Zval =  5.0
     Generated by new atomic code, or converted to UPF format
     Using radial grid of  525 points,  2 beta functions with: 
                l(1) =   0
                l(2) =   1

     atomic species   valence    mass     pseudopotential
        Al             3.00    26.98000     Al( 1.00)
        As             5.00    74.92000     As( 1.00)

     24 Sym. Ops. (no inversion) found



   Cartesian axes

     site n.     atom                  positions (alat units)
         1           Al  tau(   1) = (   0.0000000   0.0000000   0.0000000  )
         2           As  tau(   2) = (   0.2500000   0.2500000   0.2500000  )

     number of k points=    10
                       cart. coord. in units 2pi/alat
        k(    1) = (   0.2500000   0.2500000   0.2500000), wk =   0.3750000
        k(    2) = (   0.7500000  -0.2500000   0.7500000), wk =   0.0000000
        k(    3) = (   0.2500000   0.2500000   0.7500000), wk =   0.7500000
        k(    4) = (   0.7500000  -0.2500000   1.2500000), wk =   0.0000000
        k(    5) = (  -0.2500000   0.2500000  -0.2500000), wk =   0.1250000
        k(    6) = (   0.2500000  -0.2500000   0.2500000), wk =   0.0000000
        k(    7) = (  -0.7500000  -0.2500000   0.2500000), wk =   0.3750000
        k(    8) = (  -0.2500000  -0.7500000   0.7500000), wk =   0.0000000
        k(    9) = (  -0.7500000   0.2500000  -0.2500000), wk =   0.3750000
        k(   10) = (  -0.2500000  -0.2500000   0.2500000), wk =   0.0000000

     Dense  grid:     2445 G-vectors     FFT dimensions: (  20,  20,  20)

     Estimated max dynamical RAM per process >       0.42 MB

     Estimated total dynamical RAM >       1.68 MB

     The potential is recalculated from file :
     ./tmp/_ph0/AlAs.save/charge-density

     Starting wfcs are    8 atomic wfcs

     Band Structure Calculation
     Davidson diagonalization with overlap

     ethr =  1.25E-10,  avg # of iterations = 11.6

     total cpu time spent up to now is        0.2 secs

     End of band structure calculation

          k = 0.2500 0.2500 0.2500 (   311 PWs)   bands (ev):

    -6.3574   1.7036   4.6970   4.6970

          k = 0.7500-0.2500 0.7500 (   311 PWs)   bands (ev):

    -5.1818  -0.0414   2.3126   3.5086

          k = 0.2500 0.2500 0.7500 (   311 PWs)   bands (ev):

    -5.1818  -0.0414   2.3126   3.5086

          k = 0.7500-0.2500 1.2500 (   311 PWs)   bands (ev):

    -5.1818  -0.0414   2.3126   3.5086

          k =-0.2500 0.2500-0.2500 (   311 PWs)   bands (ev):

    -6.3574   1.7036   4.6970   4.6970

          k = 0.2500-0.2500 0.2500 (   311 PWs)   bands (ev):

    -6.3574   1.7036   4.6970   4.6970

          k =-0.7500-0.2500 0.2500 (   311 PWs)   bands (ev):

    -5.1818  -0.0414   2.3126   3.5086

          k =-0.2500-0.7500 0.7500 (   311 PWs)   bands (ev):

    -5.1818  -0.0414   2.3126   3.5086

          k =-0.7500 0.2500-0.2500 (   311 PWs)   bands (ev):

    -5.1818  -0.0414   2.3126   3.5086

          k =-0.2500-0.2500 0.2500 (   311 PWs)   bands (ev):

    -6.3574   1.7036   4.6970   4.6970

     highest occupied level (ev):     4.6970

     Writing config to output data dir ./tmp/_ph0/AlAs.save/

     Phonons on a uniform q-grid                                                

     bravais-lattice index     =            2
     lattice parameter (alat)  =      10.5000  a.u.
     unit-cell volume          =     289.4062 (a.u.)^3
     number of atoms/cell      =            2
     number of atomic types    =            2
     kinetic-energy cut-off    =      16.0000  Ry
     charge density cut-off    =      64.0000  Ry
     convergence threshold     =      1.0E-14
     beta                      =       0.7000
     number of iterations used =            4
     Exchange-correlation= PZ
                           (   1   1   0   0   0   0   0)


     celldm(1)=   10.50000  celldm(2)=    0.00000  celldm(3)=    0.00000
     celldm(4)=    0.00000  celldm(5)=    0.00000  celldm(6)=    0.00000

     crystal axes: (cart. coord. in units of alat)
               a(1) = ( -0.5000  0.0000  0.5000 )  
               a(2) = (  0.0000  0.5000  0.5000 )  
               a(3) = ( -0.5000  0.5000  0.0000 )  

     reciprocal axes: (cart. coord. in units 2 pi/alat)
               b(1) = ( -1.0000 -1.0000  1.0000 )  
               b(2) = (  1.0000  1.0000  1.0000 )  
               b(3) = ( -1.0000  1.0000 -1.0000 )  


     Atoms inside the unit cell: 

     Cartesian axes

     site n.  atom      mass           positions (alat units)
        1     Al  26.9800   tau(    1) = (    0.00000    0.00000    0.00000  )
        2     As  74.9200   tau(    2) = (    0.25000    0.25000    0.25000  )

     Computing dynamical matrix for 
                    q = (   0.5000000  -0.5000000   0.5000000 )

      7 Sym.Ops. (with q -> -q+G )


     G cutoff =  178.7306  (    611 G-vectors)     FFT grid: ( 20, 20, 20)
     number of k points=    10

     PseudoPot. # 1 for Al read from file:
     ../../pseudo/Al.pz-vbc.UPF
     MD5 check sum: 69dcd8cd7cc1bedf536afd524f174f6a
     Pseudo is Norm-conserving, Zval =  3.0
     Generated by new atomic code, or converted to UPF format
     Using radial grid of  171 points,  2 beta functions with: 
                l(1) =   0
                l(2) =   1

     PseudoPot. # 2 for As read from file:
     ../../pseudo/As.pz-bhs.UPF
     MD5 check sum: d9127a8b584737f42ec2fe47e3acdea8
     Pseudo is Norm-conserving, Zval =  5.0
     Generated by new atomic code, or converted to UPF format
     Using radial grid of  525 points,  2 beta functions with: 
                l(1) =   0
                l(2) =   1

     Mode symmetry, C_3v (3m)   point group:


     Atomic displacements:
     There are    4 irreducible representations

     Representation     1      1 modes -  To be done

     Representation     2      1 modes -  To be done

     Representation     3      2 modes -  To be done

     Representation     4      2 modes -  To be done



     Alpha used in Ewald sum =   0.7000
     PHONON       :      1.28s CPU      1.42s WALL



     Representation #   1 mode #   1

     Self-consistent Calculation

      iter #   1 total cpu time :     1.4 secs   av.it.:   5.4
      thresh= 1.000E-02 alpha_mix =  0.700 |ddv_scf|^2 =  5.801E-05

      iter #   2 total cpu time :     1.4 secs   av.it.:   8.2
      thresh= 7.617E-04 alpha_mix =  0.700 |ddv_scf|^2 =  1.452E-04

      iter #   3 total cpu time :     1.5 secs   av.it.:   7.4
      thresh= 1.205E-03 alpha_mix =  0.700 |ddv_scf|^2 =  6.727E-07

      iter #   4 total cpu time :     1.5 secs   av.it.:   7.4
      thresh= 8.202E-05 alpha_mix =  0.700 |ddv_scf|^2 =  4.009E-09

      iter #   5 total cpu time :     1.5 secs   av.it.:   8.0
      thresh= 6.332E-06 alpha_mix =  0.700 |ddv_scf|^2 =  7.197E-11

      iter #   6 total cpu time :     1.5 secs   av.it.:   8.4
      thresh= 8.483E-07 alpha_mix =  0.700 |ddv_scf|^2 =  1.242E-12

      iter #   7 total cpu time :     1.5 secs   av.it.:   8.2
      thresh= 1.114E-07 alpha_mix =  0.700 |ddv_scf|^2 =  2.367E-14

      iter #   8 total cpu time :     1.5 secs   av.it.:   7.6
      thresh= 1.538E-08 alpha_mix =  0.700 |ddv_scf|^2 =  2.016E-16

     End of self-consistent calculation

     Convergence has been achieved 


     Representation #   2 mode #   2

     Self-consistent Calculation

      iter #   1 total cpu time :     1.5 secs   av.it.:   6.2
      thresh= 1.000E-02 alpha_mix =  0.700 |ddv_scf|^2 =  3.570E-04

      iter #   2 total cpu time :     1.5 secs   av.it.:   8.2
      thresh= 1.890E-03 alpha_mix =  0.700 |ddv_scf|^2 =  1.023E-03

      iter #   3 total cpu time :     1.5 secs   av.it.:   7.4
      thresh= 3.198E-03 alpha_mix =  0.700 |ddv_scf|^2 =  5.157E-08

      iter #   4 total cpu time :     1.5 secs   av.it.:   8.0
      thresh= 2.271E-05 alpha_mix =  0.700 |ddv_scf|^2 =  8.189E-09

      iter #   5 total cpu time :     1.6 secs   av.it.:   7.4
      thresh= 9.049E-06 alpha_mix =  0.700 |ddv_scf|^2 =  4.330E-11

      iter #   6 total cpu time :     1.6 secs   av.it.:   8.4
      thresh= 6.581E-07 alpha_mix =  0.700 |ddv_scf|^2 =  4.583E-12

      iter #   7 total cpu time :     1.6 secs   av.it.:   8.0
      thresh= 2.141E-07 alpha_mix =  0.700 |ddv_scf|^2 =  8.370E-15

     End of self-consistent calculation

     Convergence has been achieved 


     Representation #   3 modes #   3   4

     Self-consistent Calculation

      iter #   1 total cpu time :     1.6 secs   av.it.:   5.9
      thresh= 1.000E-02 alpha_mix =  0.700 |ddv_scf|^2 =  1.539E-06

      iter #   2 total cpu time :     1.6 secs   av.it.:   9.1
      thresh= 1.241E-04 alpha_mix =  0.700 |ddv_scf|^2 =  1.303E-07

      iter #   3 total cpu time :     1.6 secs   av.it.:   9.0
      thresh= 3.609E-05 alpha_mix =  0.700 |ddv_scf|^2 =  8.955E-11

      iter #   4 total cpu time :     1.6 secs   av.it.:   9.1
      thresh= 9.463E-07 alpha_mix =  0.700 |ddv_scf|^2 =  6.905E-13

      iter #   5 total cpu time :     1.7 secs   av.it.:   8.6
      thresh= 8.310E-08 alpha_mix =  0.700 |ddv_scf|^2 =  1.343E-14

      iter #   6 total cpu time :     1.7 secs   av.it.:   9.2
      thresh= 1.159E-08 alpha_mix =  0.700 |ddv_scf|^2 =  3.167E-17

     End of self-consistent calculation

     Convergence has been achieved 


     Representation #   4 modes #   5   6

     Self-consistent Calculation

      iter #   1 total cpu time :     1.7 secs   av.it.:   5.0
      thresh= 1.000E-02 alpha_mix =  0.700 |ddv_scf|^2 =  1.482E-07

      iter #   2 total cpu time :     1.7 secs   av.it.:   8.9
      thresh= 3.849E-05 alpha_mix =  0.700 |ddv_scf|^2 =  8.927E-09

      iter #   3 total cpu time :     1.7 secs   av.it.:   8.9
      thresh= 9.448E-06 alpha_mix =  0.700 |ddv_scf|^2 =  1.466E-10

      iter #   4 total cpu time :     1.8 secs   av.it.:   9.1
      thresh= 1.211E-06 alpha_mix =  0.700 |ddv_scf|^2 =  7.497E-12

      iter #   5 total cpu time :     1.8 secs   av.it.:   8.2
      thresh= 2.738E-07 alpha_mix =  0.700 |ddv_scf|^2 =  2.503E-15

     End of self-consistent calculation

     Convergence has been achieved 

     Number of q in the star =    4
     List of q in the star:
          1   0.500000000  -0.500000000   0.500000000
          2  -0.500000000   0.500000000   0.500000000
          3   0.500000000   0.500000000  -0.500000000
          4  -0.500000000  -0.500000000  -0.500000000

     Diagonalizing the dynamical matrix

     q = (    0.500000000  -0.500000000   0.500000000 ) 

 **************************************************************************
     freq (    1) =       2.013721 [THz] =      67.170489 [cm-1]
     freq (    2) =       2.013721 [THz] =      67.170489 [cm-1]
     freq (    3) =       6.495534 [THz] =     216.667701 [cm-1]
     freq (    4) =      10.940697 [THz] =     364.942372 [cm-1]
     freq (    5) =      10.940697 [THz] =     364.942372 [cm-1]
     freq (    6) =      11.550614 [THz] =     385.286994 [cm-1]
 **************************************************************************

     Mode symmetry, C_3v (3m)   point group:

     freq (   1-   2) =         67.2  [cm-1]   --> E    L_3           
     freq (   3-   3) =        216.7  [cm-1]   --> A_1  L_1           
     freq (   4-   5) =        364.9  [cm-1]   --> E    L_3           
     freq (   6-   6) =        385.3  [cm-1]   --> A_1  L_1           

     Calculation of q =    0.0000000   0.5000000   0.0000000

     Parallelization info
     --------------------
     sticks:   dense  smooth     PW     G-vecs:    dense   smooth      PW
     Min          60      60     21                  610      610     132
     Max          61      61     22                  613      613     135
     Sum         241     241     85                 2445     2445     531

     Using Slab Decomposition


     Title: 
     Phonons on a uniform q-grid                                                


     bravais-lattice index     =            2
     lattice parameter (alat)  =      10.5000  a.u.
     unit-cell volume          =     289.4062 (a.u.)^3
     number of atoms/cell      =            2
     number of atomic types    =            2
     number of electrons       =         8.00
     number of Kohn-Sham states=            4
     kinetic-energy cutoff     =      16.0000  Ry
     charge density cutoff     =      64.0000  Ry
     Exchange-correlation= PZ
                           (   1   1   0   0   0   0   0)

     celldm(1)=  10.500000  celldm(2)=   0.000000  celldm(3)=   0.000000
     celldm(4)=   0.000000  celldm(5)=   0.000000  celldm(6)=   0.000000

     crystal axes: (cart. coord. in units of alat)
               a(1) = (  -0.500000   0.000000   0.500000 )  
               a(2) = (   0.000000   0.500000   0.500000 )  
               a(3) = (  -0.500000   0.500000   0.000000 )  

     reciprocal axes: (cart. coord. in units 2 pi/alat)
               b(1) = ( -1.000000 -1.000000  1.000000 )  
               b(2) = (  1.000000  1.000000  1.000000 )  
               b(3) = ( -1.000000  1.000000 -1.000000 )  


     PseudoPot. # 1 for Al read from file:
     ../../pseudo/Al.pz-vbc.UPF
     MD5 check sum: 69dcd8cd7cc1bedf536afd524f174f6a
     Pseudo is Norm-conserving, Zval =  3.0
     Generated by new atomic code, or converted to UPF format
     Using radial grid of  171 points,  2 beta functions with: 
                l(1) =   0
                l(2) =   1

     PseudoPot. # 2 for As read from file:
     ../../pseudo/As.pz-bhs.UPF
     MD5 check sum: d9127a8b584737f42ec2fe47e3acdea8
     Pseudo is Norm-conserving, Zval =  5.0
     Generated by new atomic code, or converted to UPF format
     Using radial grid of  525 points,  2 beta functions with: 
                l(1) =   0
                l(2) =   1

     atomic species   valence    mass     pseudopotential
        Al             3.00    26.98000     Al( 1.00)
        As             5.00    74.92000     As( 1.00)

     24 Sym. Ops. (no inversion) found



   Cartesian axes

     site n.     atom                  positions (alat units)
         1           Al  tau(   1) = (   0.0000000   0.0000000   0.0000000  )
         2           As  tau(   2) = (   0.2500000   0.2500000   0.2500000  )

     number of k points=    24
                       cart. coord. in units 2pi/alat
        k(    1) = (   0.2500000   0.2500000   0.2500000), wk =   0.1250000
        k(    2) = (   0.2500000   0.7500000   0.2500000), wk =   0.0000000
        k(    3) = (   0.2500000   0.2500000   0.7500000), wk =   0.2500000
        k(    4) = (   0.2500000   0.7500000   0.7500000), wk =   0.0000000
        k(    5) = (  -0.2500000  -0.2500000   0.2500000), wk =   0.1250000
        k(    6) = (  -0.2500000   0.2500000   0.2500000), wk =   0.0000000
        k(    7) = (  -0.2500000  -0.2500000  -0.2500000), wk =   0.1250000
        k(    8) = (  -0.2500000   0.2500000  -0.2500000), wk =   0.0000000
        k(    9) = (   0.2500000   0.2500000  -0.2500000), wk =   0.1250000
        k(   10) = (   0.2500000   0.7500000  -0.2500000), wk =   0.0000000
        k(   11) = (  -0.2500000  -0.2500000   0.7500000), wk =   0.2500000
        k(   12) = (  -0.2500000   0.2500000   0.7500000), wk =   0.0000000
        k(   13) = (  -0.2500000  -0.7500000   0.2500000), wk =   0.1250000
        k(   14) = (  -0.2500000  -0.2500000   0.2500000), wk =   0.0000000
        k(   15) = (  -0.2500000   0.7500000  -0.2500000), wk =   0.1250000
        k(   16) = (  -0.2500000   1.2500000  -0.2500000), wk =   0.0000000
        k(   17) = (  -0.2500000  -0.2500000  -0.7500000), wk =   0.2500000
        k(   18) = (  -0.2500000   0.2500000  -0.7500000), wk =   0.0000000
        k(   19) = (   0.2500000   0.2500000  -0.7500000), wk =   0.2500000
        k(   20) = (   0.2500000   0.7500000  -0.7500000), wk =   0.0000000
        k(   21) = (  -0.2500000   0.7500000   0.2500000), wk =   0.1250000
        k(   22) = (  -0.2500000   1.2500000   0.2500000), wk =   0.0000000
        k(   23) = (  -0.2500000  -0.7500000  -0.2500000), wk =   0.1250000
        k(   24) = (  -0.2500000  -0.2500000  -0.2500000), wk =   0.0000000

     Dense  grid:     2445 G-vectors     FFT dimensions: (  20,  20,  20)

     Estimated max dynamical RAM per process >       0.42 MB

     Estimated total dynamical RAM >       1.66 MB

     The potential is recalculated from file :
     ./tmp/_ph0/AlAs.save/charge-density

     Starting wfcs are    8 atomic wfcs

     Band Structure Calculation
     Davidson diagonalization with overlap

     ethr =  1.25E-10,  avg # of iterations = 11.7

     total cpu time spent up to now is        0.2 secs

     End of band structure calculation

          k = 0.2500 0.2500 0.2500 (   311 PWs)   bands (ev):

    -6.3574   1.7036   4.6970   4.6970

          k = 0.2500 0.7500 0.2500 (   311 PWs)   bands (ev):

    -5.1818  -0.0414   2.3126   3.5086

          k = 0.2500 0.2500 0.7500 (   311 PWs)   bands (ev):

    -5.1818  -0.0414   2.3126   3.5086

          k = 0.2500 0.7500 0.7500 (   311 PWs)   bands (ev):

    -5.1818  -0.0414   2.3126   3.5086

          k =-0.2500-0.2500 0.2500 (   311 PWs)   bands (ev):

    -6.3574   1.7036   4.6970   4.6970

          k =-0.2500 0.2500 0.2500 (   311 PWs)   bands (ev):

    -6.3574   1.7036   4.6970   4.6970

          k =-0.2500-0.2500-0.2500 (   311 PWs)   bands (ev):

    -6.3574   1.7036   4.6970   4.6970

          k =-0.2500 0.2500-0.2500 (   311 PWs)   bands (ev):

    -6.3574   1.7036   4.6970   4.6970

          k = 0.2500 0.2500-0.2500 (   311 PWs)   bands (ev):

    -6.3574   1.7036   4.6970   4.6970

          k = 0.2500 0.7500-0.2500 (   311 PWs)   bands (ev):

    -5.1818  -0.0414   2.3126   3.5086

          k =-0.2500-0.2500 0.7500 (   311 PWs)   bands (ev):

    -5.1818  -0.0414   2.3126   3.5086

          k =-0.2500 0.2500 0.7500 (   311 PWs)   bands (ev):

    -5.1818  -0.0414   2.3126   3.5086

          k =-0.2500-0.7500 0.2500 (   311 PWs)   bands (ev):

    -5.1818  -0.0414   2.3126   3.5086

          k =-0.2500-0.2500 0.2500 (   311 PWs)   bands (ev):

    -6.3574   1.7036   4.6970   4.6970

          k =-0.2500 0.7500-0.2500 (   311 PWs)   bands (ev):

    -5.1818  -0.0414   2.3126   3.5086

          k =-0.2500 1.2500-0.2500 (   311 PWs)   bands (ev):

    -5.1818  -0.0414   2.3126   3.5086

          k =-0.2500-0.2500-0.7500 (   311 PWs)   bands (ev):

    -5.1818  -0.0414   2.3126   3.5086

          k =-0.2500 0.2500-0.7500 (   311 PWs)   bands (ev):

    -5.1818  -0.0414   2.3126   3.5086

          k = 0.2500 0.2500-0.7500 (   311 PWs)   bands (ev):

    -5.1818  -0.0414   2.3126   3.5086

          k = 0.2500 0.7500-0.7500 (   311 PWs)   bands (ev):

    -5.1818  -0.0414   2.3126   3.5086

          k =-0.2500 0.7500 0.2500 (   311 PWs)   bands (ev):

    -5.1818  -0.0414   2.3126   3.5086

          k =-0.2500 1.2500 0.2500 (   311 PWs)   bands (ev):

    -5.1818  -0.0414   2.3126   3.5086

          k =-0.2500-0.7500-0.2500 (   311 PWs)   bands (ev):

    -5.1818  -0.0414   2.3126   3.5086

          k =-0.2500-0.2500-0.2500 (   311 PWs)   bands (ev):

    -6.3574   1.7036   4.6970   4.6970

     highest occupied level (ev):     4.6970

     Writing config to output data dir ./tmp/_ph0/AlAs.save/

     Phonons on a uniform q-grid                                                

     bravais-lattice index     =            2
     lattice parameter (alat)  =      10.5000  a.u.
     unit-cell volume          =     289.4062 (a.u.)^3
     number of atoms/cell      =            2
     number of atomic types    =            2
     kinetic-energy cut-off    =      16.0000  Ry
     charge density cut-off    =      64.0000  Ry
     convergence threshold     =      1.0E-14
     beta                      =       0.7000
     number of iterations used =            4
     Exchange-correlation= PZ
                           (   1   1   0   0   0   0   0)


     celldm(1)=   10.50000  celldm(2)=    0.00000  celldm(3)=    0.00000
     celldm(4)=    0.00000  celldm(5)=    0.00000  celldm(6)=    0.00000

     crystal axes: (cart. coord. in units of alat)
               a(1) = ( -0.5000  0.0000  0.5000 )  
               a(2) = (  0.0000  0.5000  0.5000 )  
               a(3) = ( -0.5000  0.5000  0.0000 )  

     reciprocal axes: (cart. coord. in units 2 pi/alat)
               b(1) = ( -1.0000 -1.0000  1.0000 )  
               b(2) = (  1.0000  1.0000  1.0000 )  
               b(3) = ( -1.0000  1.0000 -1.0000 )  


     Atoms inside the unit cell: 

     Cartesian axes

     site n.  atom      mass           positions (alat units)
        1     Al  26.9800   tau(    1) = (    0.00000    0.00000    0.00000  )
        2     As  74.9200   tau(    2) = (    0.25000    0.25000    0.25000  )

     Computing dynamical matrix for 
                    q = (   0.0000000   0.5000000   0.0000000 )

      4 Sym.Ops. (no q -> -q+G )


     G cutoff =  178.7306  (    611 G-vectors)     FFT grid: ( 20, 20, 20)
     number of k points=    24

     PseudoPot. # 1 for Al read from file:
     ../../pseudo/Al.pz-vbc.UPF
     MD5 check sum: 69dcd8cd7cc1bedf536afd524f174f6a
     Pseudo is Norm-conserving, Zval =  3.0
     Generated by new atomic code, or converted to UPF format
     Using radial grid of  171 points,  2 beta functions with: 
                l(1) =   0
                l(2) =   1

     PseudoPot. # 2 for As read from file:
     ../../pseudo/As.pz-bhs.UPF
     MD5 check sum: d9127a8b584737f42ec2fe47e3acdea8
     Pseudo is Norm-conserving, Zval =  5.0
     Generated by new atomic code, or converted to UPF format
     Using radial grid of  525 points,  2 beta functions with: 
                l(1) =   0
                l(2) =   1

     Mode symmetry, C_2v (mm2)  point group:


     Atomic displacements:
     There are    6 irreducible representations

     Representation     1      1 modes -  To be done

     Representation     2      1 modes -  To be done

     Representation     3      1 modes -  To be done

     Representation     4      1 modes -  To be done

     Representation     5      1 modes -  To be done

     Representation     6      1 modes -  To be done



     Alpha used in Ewald sum =   0.7000
     PHONON       :      1.68s CPU      1.86s WALL



     Representation #   1 mode #   1

     Self-consistent Calculation

      iter #   1 total cpu time :     1.9 secs   av.it.:   6.5
      thresh= 1.000E-02 alpha_mix =  0.700 |ddv_scf|^2 =  1.920E-03

      iter #   2 total cpu time :     1.9 secs   av.it.:   8.0
      thresh= 4.381E-03 alpha_mix =  0.700 |ddv_scf|^2 =  1.597E-02

      iter #   3 total cpu time :     1.9 secs   av.it.:   7.2
      thresh= 1.000E-02 alpha_mix =  0.700 |ddv_scf|^2 =  2.128E-06

      iter #   4 total cpu time :     1.9 secs   av.it.:   8.2
      thresh= 1.459E-04 alpha_mix =  0.700 |ddv_scf|^2 =  2.557E-08

      iter #   5 total cpu time :     2.0 secs   av.it.:   8.8
      thresh= 1.599E-05 alpha_mix =  0.700 |ddv_scf|^2 =  8.232E-11

      iter #   6 total cpu time :     2.0 secs   av.it.:   8.2
      thresh= 9.073E-07 alpha_mix =  0.700 |ddv_scf|^2 =  2.711E-11

      iter #   7 total cpu time :     2.0 secs   av.it.:   7.3
      thresh= 5.207E-07 alpha_mix =  0.700 |ddv_scf|^2 =  1.530E-11

      iter #   8 total cpu time :     2.0 secs   av.it.:   6.8
      thresh= 3.912E-07 alpha_mix =  0.700 |ddv_scf|^2 =  4.402E-15

     End of self-consistent calculation

     Convergence has been achieved 


     Representation #   2 mode #   2

     Self-consistent Calculation

      iter #   1 total cpu time :     2.0 secs   av.it.:   5.7
      thresh= 1.000E-02 alpha_mix =  0.700 |ddv_scf|^2 =  3.752E-04

      iter #   2 total cpu time :     2.1 secs   av.it.:   8.0
      thresh= 1.937E-03 alpha_mix =  0.700 |ddv_scf|^2 =  2.910E-03

      iter #   3 total cpu time :     2.1 secs   av.it.:   6.8
      thresh= 5.394E-03 alpha_mix =  0.700 |ddv_scf|^2 =  5.645E-07

      iter #   4 total cpu time :     2.1 secs   av.it.:   7.8
      thresh= 7.513E-05 alpha_mix =  0.700 |ddv_scf|^2 =  5.723E-09

      iter #   5 total cpu time :     2.1 secs   av.it.:   8.8
      thresh= 7.565E-06 alpha_mix =  0.700 |ddv_scf|^2 =  5.410E-11

      iter #   6 total cpu time :     2.1 secs   av.it.:   8.3
      thresh= 7.356E-07 alpha_mix =  0.700 |ddv_scf|^2 =  2.516E-11

      iter #   7 total cpu time :     2.2 secs   av.it.:   7.7
      thresh= 5.016E-07 alpha_mix =  0.700 |ddv_scf|^2 =  4.272E-11

      iter #   8 total cpu time :     2.2 secs   av.it.:   7.1
      thresh= 6.536E-07 alpha_mix =  0.700 |ddv_scf|^2 =  2.653E-14

      iter #   9 total cpu time :     2.2 secs   av.it.:   7.7
      thresh= 1.629E-08 alpha_mix =  0.700 |ddv_scf|^2 =  1.785E-16

     End of self-consistent calculation

     Convergence has been achieved 


     Representation #   3 mode #   3

     Self-consistent Calculation

      iter #   1 total cpu time :     2.2 secs   av.it.:   4.9
      thresh= 1.000E-02 alpha_mix =  0.700 |ddv_scf|^2 =  1.095E-06

      iter #   2 total cpu time :     2.2 secs   av.it.:   8.4
      thresh= 1.046E-04 alpha_mix =  0.700 |ddv_scf|^2 =  1.261E-07

      iter #   3 total cpu time :     2.3 secs   av.it.:   8.3
      thresh= 3.552E-05 alpha_mix =  0.700 |ddv_scf|^2 =  6.606E-10

      iter #   4 total cpu time :     2.3 secs   av.it.:   7.9
      thresh= 2.570E-06 alpha_mix =  0.700 |ddv_scf|^2 =  2.114E-11

      iter #   5 total cpu time :     2.3 secs   av.it.:   7.9
      thresh= 4.598E-07 alpha_mix =  0.700 |ddv_scf|^2 =  3.770E-15

     End of self-consistent calculation

     Convergence has been achieved 


     Representation #   4 mode #   4

     Self-consistent Calculation

      iter #   1 total cpu time :     2.3 secs   av.it.:   5.8
      thresh= 1.000E-02 alpha_mix =  0.700 |ddv_scf|^2 =  8.767E-06

      iter #   2 total cpu time :     2.3 secs   av.it.:   8.4
      thresh= 2.961E-04 alpha_mix =  0.700 |ddv_scf|^2 =  1.180E-06

      iter #   3 total cpu time :     2.4 secs   av.it.:   8.2
      thresh= 1.086E-04 alpha_mix =  0.700 |ddv_scf|^2 =  3.848E-10

      iter #   4 total cpu time :     2.4 secs   av.it.:   8.0
      thresh= 1.962E-06 alpha_mix =  0.700 |ddv_scf|^2 =  1.531E-11

      iter #   5 total cpu time :     2.4 secs   av.it.:   8.2
      thresh= 3.913E-07 alpha_mix =  0.700 |ddv_scf|^2 =  6.674E-14

      iter #   6 total cpu time :     2.4 secs   av.it.:   8.6
      thresh= 2.583E-08 alpha_mix =  0.700 |ddv_scf|^2 =  2.374E-16

     End of self-consistent calculation

     Convergence has been achieved 


     Representation #   5 mode #   5

     Self-consistent Calculation

      iter #   1 total cpu time :     2.4 secs   av.it.:   5.8
      thresh= 1.000E-02 alpha_mix =  0.700 |ddv_scf|^2 =  8.767E-06

      iter #   2 total cpu time :     2.5 secs   av.it.:   8.4
      thresh= 2.961E-04 alpha_mix =  0.700 |ddv_scf|^2 =  1.180E-06

      iter #   3 total cpu time :     2.5 secs   av.it.:   8.1
      thresh= 1.086E-04 alpha_mix =  0.700 |ddv_scf|^2 =  3.846E-10

      iter #   4 total cpu time :     2.5 secs   av.it.:   8.0
      thresh= 1.961E-06 alpha_mix =  0.700 |ddv_scf|^2 =  1.533E-11

      iter #   5 total cpu time :     2.5 secs   av.it.:   8.2
      thresh= 3.915E-07 alpha_mix =  0.700 |ddv_scf|^2 =  6.696E-14

      iter #   6 total cpu time :     2.5 secs   av.it.:   8.6
      thresh= 2.588E-08 alpha_mix =  0.700 |ddv_scf|^2 =  2.431E-16

     End of self-consistent calculation

     Convergence has been achieved 


     Representation #   6 mode #   6

     Self-consistent Calculation

      iter #   1 total cpu time :     2.5 secs   av.it.:   4.9
      thresh= 1.000E-02 alpha_mix =  0.700 |ddv_scf|^2 =  1.095E-06

      iter #   2 total cpu time :     2.6 secs   av.it.:   8.4
      thresh= 1.046E-04 alpha_mix =  0.700 |ddv_scf|^2 =  1.262E-07

      iter #   3 total cpu time :     2.6 secs   av.it.:   8.2
      thresh= 3.553E-05 alpha_mix =  0.700 |ddv_scf|^2 =  6.596E-10

      iter #   4 total cpu time :     2.6 secs   av.it.:   7.9
      thresh= 2.568E-06 alpha_mix =  0.700 |ddv_scf|^2 =  2.111E-11

      iter #   5 total cpu time :     2.6 secs   av.it.:   7.9
      thresh= 4.594E-07 alpha_mix =  0.700 |ddv_scf|^2 =  3.801E-15

     End of self-consistent calculation

     Convergence has been achieved 

     Number of q in the star =    6
     List of q in the star:
          1   0.000000000   0.500000000   0.000000000
          2  -0.500000000   0.000000000   0.000000000
          3   0.000000000  -0.500000000   0.000000000
          4   0.000000000   0.000000000   0.500000000
          5   0.000000000   0.000000000  -0.500000000
          6   0.500000000   0.000000000   0.000000000

     Diagonalizing the dynamical matrix

     q = (    0.000000000   0.500000000   0.000000000 ) 

 **************************************************************************
     freq (    1) =       2.419284 [THz] =      80.698628 [cm-1]
     freq (    2) =       2.419284 [THz] =      80.698628 [cm-1]
     freq (    3) =       4.607370 [THz] =     153.685308 [cm-1]
     freq (    4) =      10.666259 [THz] =     355.788090 [cm-1]
     freq (    5) =      10.666259 [THz] =     355.788090 [cm-1]
     freq (    6) =      12.370923 [THz] =     412.649581 [cm-1]
 **************************************************************************

     Mode symmetry, C_2v (mm2)  point group:

     freq (   1-   1) =         80.7  [cm-1]   --> B_1  D_3  S_3      
     freq (   2-   2) =         80.7  [cm-1]   --> B_2  D_4  S_4      
     freq (   3-   3) =        153.7  [cm-1]   --> A_1  D_1  S_1      
     freq (   4-   4) =        355.8  [cm-1]   --> B_1  D_3  S_3      
     freq (   5-   5) =        355.8  [cm-1]   --> B_2  D_4  S_4      
     freq (   6-   6) =        412.6  [cm-1]   --> A_1  D_1  S_1      

     Calculation of q =    0.7500000  -0.2500000   0.7500000

     Parallelization info
     --------------------
     sticks:   dense  smooth     PW     G-vecs:    dense   smooth      PW
     Min          60      60     24                  610      610     161
     Max          61      61     25                  613      613     162
     Sum         241     241     97                 2445     2445     645

     Using Slab Decomposition


     Title: 
     Phonons on a uniform q-grid                                                


     bravais-lattice index     =            2
     lattice parameter (alat)  =      10.5000  a.u.
     unit-cell volume          =     289.4062 (a.u.)^3
     number of atoms/cell      =            2
     number of atomic types    =            2
     number of electrons       =         8.00
     number of Kohn-Sham states=            4
     kinetic-energy cutoff     =      16.0000  Ry
     charge density cutoff     =      64.0000  Ry
     Exchange-correlation= PZ
                           (   1   1   0   0   0   0   0)

     celldm(1)=  10.500000  celldm(2)=   0.000000  celldm(3)=   0.000000
     celldm(4)=   0.000000  celldm(5)=   0.000000  celldm(6)=   0.000000

     crystal axes: (cart. coord. in units of alat)
               a(1) = (  -0.500000   0.000000   0.500000 )  
               a(2) = (   0.000000   0.500000   0.500000 )  
               a(3) = (  -0.500000   0.500000   0.000000 )  

     reciprocal axes: (cart. coord. in units 2 pi/alat)
               b(1) = ( -1.000000 -1.000000  1.000000 )  
               b(2) = (  1.000000  1.000000  1.000000 )  
               b(3) = ( -1.000000  1.000000 -1.000000 )  


     PseudoPot. # 1 for Al read from file:
     ../../pseudo/Al.pz-vbc.UPF
     MD5 check sum: 69dcd8cd7cc1bedf536afd524f174f6a
     Pseudo is Norm-conserving, Zval =  3.0
     Generated by new atomic code, or converted to UPF format
     Using radial grid of  171 points,  2 beta functions with: 
                l(1) =   0
                l(2) =   1

     PseudoPot. # 2 for As read from file:
     ../../pseudo/As.pz-bhs.UPF
     MD5 check sum: d9127a8b584737f42ec2fe47e3acdea8
     Pseudo is Norm-conserving, Zval =  5.0
     Generated by new atomic code, or converted to UPF format
     Using radial grid of  525 points,  2 beta functions with: 
                l(1) =   0
                l(2) =   1

     atomic species   valence    mass     pseudopotential
        Al             3.00    26.98000     Al( 1.00)
        As             5.00    74.92000     As( 1.00)

     24 Sym. Ops. (no inversion) found



   Cartesian axes

     site n.     atom                  positions (alat units)
         1           Al  tau(   1) = (   0.0000000   0.0000000   0.0000000  )
         2           As  tau(   2) = (   0.2500000   0.2500000   0.2500000  )

     number of k points=    40
                       cart. coord. in units 2pi/alat
        k(    1) = (   0.2500000   0.2500000   0.2500000), wk =   0.0625000
        k(    2) = (   1.0000000   0.0000000   1.0000000), wk =   0.0000000
        k(    3) = (   0.2500000   0.2500000   0.7500000), wk =   0.1250000
        k(    4) = (   1.0000000   0.0000000   1.5000000), wk =   0.0000000
        k(    5) = (  -0.2500000   0.2500000  -0.2500000), wk =   0.0625000
        k(    6) = (   0.5000000   0.0000000   0.5000000), wk =   0.0000000
        k(    7) = (  -0.2500000  -0.2500000   0.2500000), wk =   0.1250000
        k(    8) = (   0.5000000  -0.5000000   1.0000000), wk =   0.0000000
        k(    9) = (  -0.2500000  -0.2500000  -0.2500000), wk =   0.0625000
        k(   10) = (   0.5000000  -0.5000000   0.5000000), wk =   0.0000000
        k(   11) = (   0.2500000   0.2500000  -0.2500000), wk =   0.1250000
        k(   12) = (   1.0000000   0.0000000   0.5000000), wk =   0.0000000
        k(   13) = (   0.2500000  -0.2500000   0.2500000), wk =   0.0625000
        k(   14) = (   1.0000000  -0.5000000   1.0000000), wk =   0.0000000
        k(   15) = (  -0.2500000   0.2500000  -0.7500000), wk =   0.1250000
        k(   16) = (   0.5000000   0.0000000   0.0000000), wk =   0.0000000
        k(   17) = (  -0.2500000  -0.2500000   0.7500000), wk =   0.1250000
        k(   18) = (   0.5000000  -0.5000000   1.5000000), wk =   0.0000000
        k(   19) = (  -0.2500000  -0.7500000   0.2500000), wk =   0.1250000
        k(   20) = (   0.5000000  -1.0000000   1.0000000), wk =   0.0000000
        k(   21) = (  -0.7500000  -0.2500000   0.2500000), wk =   0.1250000
        k(   22) = (   0.0000000  -0.5000000   1.0000000), wk =   0.0000000
        k(   23) = (  -0.2500000   0.7500000  -0.2500000), wk =   0.0625000
        k(   24) = (   0.5000000   0.5000000   0.5000000), wk =   0.0000000
        k(   25) = (   0.2500000   0.7500000   0.2500000), wk =   0.0625000
        k(   26) = (   1.0000000   0.5000000   1.0000000), wk =   0.0000000
        k(   27) = (  -0.2500000  -0.2500000  -0.7500000), wk =   0.1250000
        k(   28) = (   0.5000000  -0.5000000   0.0000000), wk =   0.0000000
        k(   29) = (   0.2500000   0.2500000  -0.7500000), wk =   0.1250000
        k(   30) = (   1.0000000   0.0000000   0.0000000), wk =   0.0000000
        k(   31) = (   0.2500000  -0.2500000   0.7500000), wk =   0.1250000
        k(   32) = (   1.0000000  -0.5000000   1.5000000), wk =   0.0000000
        k(   33) = (  -0.2500000   0.2500000   0.7500000), wk =   0.1250000
        k(   34) = (   0.5000000   0.0000000   1.5000000), wk =   0.0000000
        k(   35) = (  -0.2500000   0.7500000   0.2500000), wk =   0.1250000
        k(   36) = (   0.5000000   0.5000000   1.0000000), wk =   0.0000000
        k(   37) = (  -0.2500000  -0.7500000  -0.2500000), wk =   0.0625000
        k(   38) = (   0.5000000  -1.0000000   0.5000000), wk =   0.0000000
        k(   39) = (   0.2500000  -0.7500000   0.2500000), wk =   0.0625000
        k(   40) = (   1.0000000  -1.0000000   1.0000000), wk =   0.0000000

     Dense  grid:     2445 G-vectors     FFT dimensions: (  20,  20,  20)

     Estimated max dynamical RAM per process >       0.42 MB

     Estimated total dynamical RAM >       1.68 MB

     The potential is recalculated from file :
     ./tmp/_ph0/AlAs.save/charge-density

     Starting wfcs are    8 atomic wfcs

     Band Structure Calculation
     Davidson diagonalization with overlap

     ethr =  1.25E-10,  avg # of iterations = 11.0

     total cpu time spent up to now is        0.4 secs

     End of band structure calculation

          k = 0.2500 0.2500 0.2500 (   311 PWs)   bands (ev):

    -6.3574   1.7036   4.6970   4.6970

          k = 1.0000 0.0000 1.0000 (   302 PWs)   bands (ev):

    -4.8215  -0.4470   2.9274   2.9274

          k = 0.2500 0.2500 0.7500 (   311 PWs)   bands (ev):

    -5.1818  -0.0414   2.3126   3.5086

          k = 1.0000 0.0000 1.5000 (   308 PWs)   bands (ev):

    -4.7851  -0.0517   1.7950   2.1910

          k =-0.2500 0.2500-0.2500 (   311 PWs)   bands (ev):

    -6.3574   1.7036   4.6970   4.6970

          k = 0.5000 0.0000 0.5000 (   315 PWs)   bands (ev):

    -5.5286   0.5005   2.1485   4.2664

          k =-0.2500-0.2500 0.2500 (   311 PWs)   bands (ev):

    -6.3574   1.7036   4.6970   4.6970

          k = 0.5000-0.5000 1.0000 (   315 PWs)   bands (ev):

    -5.5286   0.5005   2.1485   4.2664

          k =-0.2500-0.2500-0.2500 (   311 PWs)   bands (ev):

    -6.3574   1.7036   4.6970   4.6970

          k = 0.5000-0.5000 0.5000 (   302 PWs)   bands (ev):

    -5.4217  -0.6402   4.3484   4.3484

          k = 0.2500 0.2500-0.2500 (   311 PWs)   bands (ev):

    -6.3574   1.7036   4.6970   4.6970

          k = 1.0000 0.0000 0.5000 (   308 PWs)   bands (ev):

    -4.7851  -0.0517   1.7950   2.1910

          k = 0.2500-0.2500 0.2500 (   311 PWs)   bands (ev):

    -6.3574   1.7036   4.6970   4.6970

          k = 1.0000-0.5000 1.0000 (   311 PWs)   bands (ev):

    -6.1429   1.9397   3.7848   3.7848

          k =-0.2500 0.2500-0.7500 (   311 PWs)   bands (ev):

    -5.1818  -0.0414   2.3126   3.5086

          k = 0.5000 0.0000 0.0000 (   311 PWs)   bands (ev):

    -6.1429   1.9397   3.7848   3.7848

          k =-0.2500-0.2500 0.7500 (   311 PWs)   bands (ev):

    -5.1818  -0.0414   2.3126   3.5086

          k = 0.5000-0.5000 1.5000 (   302 PWs)   bands (ev):

    -5.4217  -0.6402   4.3484   4.3484

          k =-0.2500-0.7500 0.2500 (   311 PWs)   bands (ev):

    -5.1818  -0.0414   2.3126   3.5086

          k = 0.5000-1.0000 1.0000 (   311 PWs)   bands (ev):

    -6.1429   1.9397   3.7848   3.7848

          k =-0.7500-0.2500 0.2500 (   311 PWs)   bands (ev):

    -5.1818  -0.0414   2.3126   3.5086

          k = 0.0000-0.5000 1.0000 (   308 PWs)   bands (ev):

    -4.7851  -0.0517   1.7950   2.1910

          k =-0.2500 0.7500-0.2500 (   311 PWs)   bands (ev):

    -5.1818  -0.0414   2.3126   3.5086

          k = 0.5000 0.5000 0.5000 (   302 PWs)   bands (ev):

    -5.4217  -0.6402   4.3484   4.3484

          k = 0.2500 0.7500 0.2500 (   311 PWs)   bands (ev):

    -5.1818  -0.0414   2.3126   3.5086

          k = 1.0000 0.5000 1.0000 (   311 PWs)   bands (ev):

    -6.1429   1.9397   3.7848   3.7848

          k =-0.2500-0.2500-0.7500 (   311 PWs)   bands (ev):

    -5.1818  -0.0414   2.3126   3.5086

          k = 0.5000-0.5000 0.0000 (   315 PWs)   bands (ev):

    -5.5286   0.5005   2.1485   4.2664

          k = 0.2500 0.2500-0.7500 (   311 PWs)   bands (ev):

    -5.1818  -0.0414   2.3126   3.5086

          k = 1.0000 0.0000 0.0000 (   302 PWs)   bands (ev):

    -4.8215  -0.4470   2.9274   2.9274

          k = 0.2500-0.2500 0.7500 (   311 PWs)   bands (ev):

    -5.1818  -0.0414   2.3126   3.5086

          k = 1.0000-0.5000 1.5000 (   315 PWs)   bands (ev):

    -5.5286   0.5005   2.1485   4.2664

          k =-0.2500 0.2500 0.7500 (   311 PWs)   bands (ev):

    -5.1818  -0.0414   2.3126   3.5086

          k = 0.5000 0.0000 1.5000 (   315 PWs)   bands (ev):

    -5.5286   0.5005   2.1485   4.2664

          k =-0.2500 0.7500 0.2500 (   311 PWs)   bands (ev):

    -5.1818  -0.0414   2.3126   3.5086

          k = 0.5000 0.5000 1.0000 (   315 PWs)   bands (ev):

    -5.5286   0.5005   2.1485   4.2664

          k =-0.2500-0.7500-0.2500 (   311 PWs)   bands (ev):

    -5.1818  -0.0414   2.3126   3.5086

          k = 0.5000-1.0000 0.5000 (   315 PWs)   bands (ev):

    -5.5286   0.5005   2.1485   4.2664

          k = 0.2500-0.7500 0.2500 (   311 PWs)   bands (ev):

    -5.1818  -0.0414   2.3126   3.5086

          k = 1.0000-1.0000 1.0000 (   331 PWs)   bands (ev):

    -6.9796   5.1762   5.1762   5.1762

     highest occupied level (ev):     4.6970

     Writing config to output data dir ./tmp/_ph0/AlAs.save/

     Phonons on a uniform q-grid                                                

     bravais-lattice index     =            2
     lattice parameter (alat)  =      10.5000  a.u.
     unit-cell volume          =     289.4062 (a.u.)^3
     number of atoms/cell      =            2
     number of atomic types    =            2
     kinetic-energy cut-off    =      16.0000  Ry
     charge density cut-off    =      64.0000  Ry
     convergence threshold     =      1.0E-14
     beta                      =       0.7000
     number of iterations used =            4
     Exchange-correlation= PZ
                           (   1   1   0   0   0   0   0)


     celldm(1)=   10.50000  celldm(2)=    0.00000  celldm(3)=    0.00000
     celldm(4)=    0.00000  celldm(5)=    0.00000  celldm(6)=    0.00000

     crystal axes: (cart. coord. in units of alat)
               a(1) = ( -0.5000  0.0000  0.5000 )  
               a(2) = (  0.0000  0.5000  0.5000 )  
               a(3) = ( -0.5000  0.5000  0.0000 )  

     reciprocal axes: (cart. coord. in units 2 pi/alat)
               b(1) = ( -1.0000 -1.0000  1.0000 )  
               b(2) = (  1.0000  1.0000  1.0000 )  
               b(3) = ( -1.0000  1.0000 -1.0000 )  


     Atoms inside the unit cell: 

     Cartesian axes

     site n.  atom      mass           positions (alat units)
        1     Al  26.9800   tau(    1) = (    0.00000    0.00000    0.00000  )
        2     As  74.9200   tau(    2) = (    0.25000    0.25000    0.25000  )

     Computing dynamical matrix for 
                    q = (   0.7500000  -0.2500000   0.7500000 )

      2 Sym.Ops. (no q -> -q+G )


     G cutoff =  178.7306  (    611 G-vectors)     FFT grid: ( 20, 20, 20)
     number of k points=    40

     PseudoPot. # 1 for Al read from file:
     ../../pseudo/Al.pz-vbc.UPF
     MD5 check sum: 69dcd8cd7cc1bedf536afd524f174f6a
     Pseudo is Norm-conserving, Zval =  3.0
     Generated by new atomic code, or converted to UPF format
     Using radial grid of  171 points,  2 beta functions with: 
                l(1) =   0
                l(2) =   1

     PseudoPot. # 2 for As read from file:
     ../../pseudo/As.pz-bhs.UPF
     MD5 check sum: d9127a8b584737f42ec2fe47e3acdea8
     Pseudo is Norm-conserving, Zval =  5.0
     Generated by new atomic code, or converted to UPF format
     Using radial grid of  525 points,  2 beta functions with: 
                l(1) =   0
                l(2) =   1

     Mode symmetry, C_s (m)     point group:


     Atomic displacements:
     There are    6 irreducible representations

     Representation     1      1 modes -  To be done

     Representation     2      1 modes -  To be done

     Representation     3      1 modes -  To be done

     Representation     4      1 modes -  To be done

     Representation     5      1 modes -  To be done

     Representation     6      1 modes -  To be done



     Alpha used in Ewald sum =   0.7000
     PHONON       :      2.52s CPU      2.78s WALL



     Representation #   1 mode #   1

     Self-consistent Calculation

      iter #   1 total cpu time :     2.8 secs   av.it.:   5.5
      thresh= 1.000E-02 alpha_mix =  0.700 |ddv_scf|^2 =  3.607E-05

      iter #   2 total cpu time :     2.9 secs   av.it.:   8.8
      thresh= 6.006E-04 alpha_mix =  0.700 |ddv_scf|^2 =  6.896E-05

      iter #   3 total cpu time :     2.9 secs   av.it.:   7.9
      thresh= 8.304E-04 alpha_mix =  0.700 |ddv_scf|^2 =  4.385E-07

      iter #   4 total cpu time :     2.9 secs   av.it.:   8.2
      thresh= 6.622E-05 alpha_mix =  0.700 |ddv_scf|^2 =  2.873E-09

      iter #   5 total cpu time :     3.0 secs   av.it.:   8.4
      thresh= 5.360E-06 alpha_mix =  0.700 |ddv_scf|^2 =  1.569E-10

      iter #   6 total cpu time :     3.0 secs   av.it.:   8.7
      thresh= 1.253E-06 alpha_mix =  0.700 |ddv_scf|^2 =  1.258E-11

      iter #   7 total cpu time :     3.0 secs   av.it.:   8.8
      thresh= 3.547E-07 alpha_mix =  0.700 |ddv_scf|^2 =  6.289E-13

      iter #   8 total cpu time :     3.1 secs   av.it.:   8.6
      thresh= 7.930E-08 alpha_mix =  0.700 |ddv_scf|^2 =  5.506E-13

      iter #   9 total cpu time :     3.1 secs   av.it.:   7.9
      thresh= 7.420E-08 alpha_mix =  0.700 |ddv_scf|^2 =  4.363E-14

      iter #  10 total cpu time :     3.1 secs   av.it.:   8.2
      thresh= 2.089E-08 alpha_mix =  0.700 |ddv_scf|^2 =  5.238E-15

     End of self-consistent calculation

     Convergence has been achieved 


     Representation #   2 mode #   2

     Self-consistent Calculation

      iter #   1 total cpu time :     3.1 secs   av.it.:   6.3
      thresh= 1.000E-02 alpha_mix =  0.700 |ddv_scf|^2 =  1.341E-04

      iter #   2 total cpu time :     3.2 secs   av.it.:   8.7
      thresh= 1.158E-03 alpha_mix =  0.700 |ddv_scf|^2 =  2.875E-04

      iter #   3 total cpu time :     3.2 secs   av.it.:   7.7
      thresh= 1.696E-03 alpha_mix =  0.700 |ddv_scf|^2 =  8.323E-07

      iter #   4 total cpu time :     3.2 secs   av.it.:   8.5
      thresh= 9.123E-05 alpha_mix =  0.700 |ddv_scf|^2 =  5.157E-09

      iter #   5 total cpu time :     3.3 secs   av.it.:   8.7
      thresh= 7.182E-06 alpha_mix =  0.700 |ddv_scf|^2 =  6.362E-10

      iter #   6 total cpu time :     3.3 secs   av.it.:   8.3
      thresh= 2.522E-06 alpha_mix =  0.700 |ddv_scf|^2 =  1.166E-11

      iter #   7 total cpu time :     3.3 secs   av.it.:   8.4
      thresh= 3.415E-07 alpha_mix =  0.700 |ddv_scf|^2 =  4.792E-13

      iter #   8 total cpu time :     3.4 secs   av.it.:   8.4
      thresh= 6.923E-08 alpha_mix =  0.700 |ddv_scf|^2 =  3.328E-14

      iter #   9 total cpu time :     3.4 secs   av.it.:   8.3
      thresh= 1.824E-08 alpha_mix =  0.700 |ddv_scf|^2 =  1.106E-14

      iter #  10 total cpu time :     3.4 secs   av.it.:   8.1
      thresh= 1.052E-08 alpha_mix =  0.700 |ddv_scf|^2 =  8.300E-17

     End of self-consistent calculation

     Convergence has been achieved 


     Representation #   3 mode #   3

     Self-consistent Calculation

      iter #   1 total cpu time :     3.5 secs   av.it.:   6.3
      thresh= 1.000E-02 alpha_mix =  0.700 |ddv_scf|^2 =  1.286E-04

      iter #   2 total cpu time :     3.5 secs   av.it.:   8.7
      thresh= 1.134E-03 alpha_mix =  0.700 |ddv_scf|^2 =  2.766E-04

      iter #   3 total cpu time :     3.5 secs   av.it.:   7.8
      thresh= 1.663E-03 alpha_mix =  0.700 |ddv_scf|^2 =  1.319E-06

      iter #   4 total cpu time :     3.6 secs   av.it.:   8.3
      thresh= 1.148E-04 alpha_mix =  0.700 |ddv_scf|^2 =  3.973E-09

      iter #   5 total cpu time :     3.6 secs   av.it.:   8.7
      thresh= 6.303E-06 alpha_mix =  0.700 |ddv_scf|^2 =  4.643E-10

      iter #   6 total cpu time :     3.6 secs   av.it.:   8.6
      thresh= 2.155E-06 alpha_mix =  0.700 |ddv_scf|^2 =  1.040E-11

      iter #   7 total cpu time :     3.7 secs   av.it.:   8.6
      thresh= 3.226E-07 alpha_mix =  0.700 |ddv_scf|^2 =  2.464E-13

      iter #   8 total cpu time :     3.7 secs   av.it.:   8.8
      thresh= 4.964E-08 alpha_mix =  0.700 |ddv_scf|^2 =  3.628E-13

      iter #   9 total cpu time :     3.7 secs   av.it.:   7.9
      thresh= 6.023E-08 alpha_mix =  0.700 |ddv_scf|^2 =  7.499E-15

     End of self-consistent calculation

     Convergence has been achieved 


     Representation #   4 mode #   4

     Self-consistent Calculation

      iter #   1 total cpu time :     3.8 secs   av.it.:   5.3
      thresh= 1.000E-02 alpha_mix =  0.700 |ddv_scf|^2 =  5.937E-06

      iter #   2 total cpu time :     3.8 secs   av.it.:   8.8
      thresh= 2.437E-04 alpha_mix =  0.700 |ddv_scf|^2 =  6.231E-06

      iter #   3 total cpu time :     3.8 secs   av.it.:   8.0
      thresh= 2.496E-04 alpha_mix =  0.700 |ddv_scf|^2 =  2.967E-07

      iter #   4 total cpu time :     3.9 secs   av.it.:   8.2
      thresh= 5.447E-05 alpha_mix =  0.700 |ddv_scf|^2 =  3.007E-09

      iter #   5 total cpu time :     3.9 secs   av.it.:   8.5
      thresh= 5.484E-06 alpha_mix =  0.700 |ddv_scf|^2 =  2.835E-10

      iter #   6 total cpu time :     3.9 secs   av.it.:   8.7
      thresh= 1.684E-06 alpha_mix =  0.700 |ddv_scf|^2 =  1.634E-11

      iter #   7 total cpu time :     4.0 secs   av.it.:   8.7
      thresh= 4.042E-07 alpha_mix =  0.700 |ddv_scf|^2 =  4.900E-13

      iter #   8 total cpu time :     4.0 secs   av.it.:   8.5
      thresh= 7.000E-08 alpha_mix =  0.700 |ddv_scf|^2 =  3.279E-15

     End of self-consistent calculation

     Convergence has been achieved 


     Representation #   5 mode #   5

     Self-consistent Calculation

      iter #   1 total cpu time :     4.1 secs   av.it.:   5.8
      thresh= 1.000E-02 alpha_mix =  0.700 |ddv_scf|^2 =  1.022E-05

      iter #   2 total cpu time :     4.1 secs   av.it.:   8.4
      thresh= 3.196E-04 alpha_mix =  0.700 |ddv_scf|^2 =  1.636E-06

      iter #   3 total cpu time :     4.1 secs   av.it.:   8.2
[...]


     PseudoPot. # 1 for Al read from file:
     ../../pseudo/Al.pz-vbc.UPF
     MD5 check sum: 69dcd8cd7cc1bedf536afd524f174f6a
     Pseudo is Norm-conserving, Zval =  3.0
     Generated by new atomic code, or converted to UPF format
     Using radial grid of  171 points,  2 beta functions with: 
                l(1) =   0
                l(2) =   1

     PseudoPot. # 2 for As read from file:
     ../../pseudo/As.pz-bhs.UPF
     MD5 check sum: d9127a8b584737f42ec2fe47e3acdea8
     Pseudo is Norm-conserving, Zval =  5.0
     Generated by new atomic code, or converted to UPF format
     Using radial grid of  525 points,  2 beta functions with: 
                l(1) =   0
                l(2) =   1

     atomic species   valence    mass     pseudopotential
        Al             3.00    26.98000     Al( 1.00)
        As             5.00    74.92000     As( 1.00)

     24 Sym. Ops. (no inversion) found



   Cartesian axes

     site n.     atom                  positions (alat units)
         1           Al  tau(   1) = (   0.0000000   0.0000000   0.0000000  )
         2           As  tau(   2) = (   0.2500000   0.2500000   0.2500000  )

     number of k points=    16
                       cart. coord. in units 2pi/alat
        k(    1) = (   0.2500000   0.2500000   0.2500000), wk =   0.2500000
        k(    2) = (  -0.2500000  -0.7500000   0.2500000), wk =   0.0000000
        k(    3) = (   0.2500000   0.2500000   0.7500000), wk =   0.2500000
        k(    4) = (  -0.2500000  -0.7500000   0.7500000), wk =   0.0000000
        k(    5) = (  -0.2500000  -0.2500000  -0.2500000), wk =   0.2500000
        k(    6) = (  -0.7500000  -1.2500000  -0.2500000), wk =   0.0000000
        k(    7) = (  -0.7500000  -0.2500000   0.2500000), wk =   0.2500000
        k(    8) = (  -1.2500000  -1.2500000   0.2500000), wk =   0.0000000
        k(    9) = (  -0.2500000  -0.2500000   0.7500000), wk =   0.2500000
        k(   10) = (  -0.7500000  -1.2500000   0.7500000), wk =   0.0000000
        k(   11) = (  -0.2500000  -0.2500000  -0.7500000), wk =   0.2500000
        k(   12) = (  -0.7500000  -1.2500000  -0.7500000), wk =   0.0000000
        k(   13) = (   0.2500000   0.2500000  -0.7500000), wk =   0.2500000
        k(   14) = (  -0.2500000  -0.7500000  -0.7500000), wk =   0.0000000
        k(   15) = (   0.7500000  -0.2500000   0.2500000), wk =   0.2500000
        k(   16) = (   0.2500000  -1.2500000   0.2500000), wk =   0.0000000

     Dense  grid:     2445 G-vectors     FFT dimensions: (  20,  20,  20)

     Estimated max dynamical RAM per process >       0.42 MB

     Estimated total dynamical RAM >       1.68 MB

     The potential is recalculated from file :
     ./tmp/_ph0/AlAs.save/charge-density

     Starting wfcs are    8 atomic wfcs

     Band Structure Calculation
     Davidson diagonalization with overlap

     ethr =  1.25E-10,  avg # of iterations = 11.8

     total cpu time spent up to now is        0.6 secs

     End of band structure calculation

          k = 0.2500 0.2500 0.2500 (   311 PWs)   bands (ev):

    -6.3574   1.7036   4.6970   4.6970

          k =-0.2500-0.7500 0.2500 (   311 PWs)   bands (ev):

    -5.1818  -0.0414   2.3126   3.5086

          k = 0.2500 0.2500 0.7500 (   311 PWs)   bands (ev):

    -5.1818  -0.0414   2.3126   3.5086

          k =-0.2500-0.7500 0.7500 (   311 PWs)   bands (ev):

    -5.1818  -0.0414   2.3126   3.5086

          k =-0.2500-0.2500-0.2500 (   311 PWs)   bands (ev):

    -6.3574   1.7036   4.6970   4.6970

          k =-0.7500-1.2500-0.2500 (   311 PWs)   bands (ev):

    -5.1818  -0.0414   2.3126   3.5086

          k =-0.7500-0.2500 0.2500 (   311 PWs)   bands (ev):

    -5.1818  -0.0414   2.3126   3.5086

          k =-1.2500-1.2500 0.2500 (   311 PWs)   bands (ev):

    -5.1818  -0.0414   2.3126   3.5086

          k =-0.2500-0.2500 0.7500 (   311 PWs)   bands (ev):

    -5.1818  -0.0414   2.3126   3.5086

          k =-0.7500-1.2500 0.7500 (   311 PWs)   bands (ev):

    -6.3574   1.7036   4.6970   4.6970

          k =-0.2500-0.2500-0.7500 (   311 PWs)   bands (ev):

    -5.1818  -0.0414   2.3126   3.5086

          k =-0.7500-1.2500-0.7500 (   311 PWs)   bands (ev):

    -6.3574   1.7036   4.6970   4.6970

          k = 0.2500 0.2500-0.7500 (   311 PWs)   bands (ev):

    -5.1818  -0.0414   2.3126   3.5086

          k =-0.2500-0.7500-0.7500 (   311 PWs)   bands (ev):

    -5.1818  -0.0414   2.3126   3.5086

          k = 0.7500-0.2500 0.2500 (   311 PWs)   bands (ev):

    -5.1818  -0.0414   2.3126   3.5086

          k = 0.2500-1.2500 0.2500 (   311 PWs)   bands (ev):

    -5.1818  -0.0414   2.3126   3.5086

     highest occupied level (ev):     4.6970

     Writing config to output data dir ./tmp/_ph0/AlAs.save/

     Phonons on a uniform q-grid                                                

     bravais-lattice index     =            2
     lattice parameter (alat)  =      10.5000  a.u.
     unit-cell volume          =     289.4062 (a.u.)^3
     number of atoms/cell      =            2
     number of atomic types    =            2
     kinetic-energy cut-off    =      16.0000  Ry
     charge density cut-off    =      64.0000  Ry
     convergence threshold     =      1.0E-14
     beta                      =       0.7000
     number of iterations used =            4
     Exchange-correlation= PZ
                           (   1   1   0   0   0   0   0)


     celldm(1)=   10.50000  celldm(2)=    0.00000  celldm(3)=    0.00000
     celldm(4)=    0.00000  celldm(5)=    0.00000  celldm(6)=    0.00000

     crystal axes: (cart. coord. in units of alat)
               a(1) = ( -0.5000  0.0000  0.5000 )  
               a(2) = (  0.0000  0.5000  0.5000 )  
               a(3) = ( -0.5000  0.5000  0.0000 )  

     reciprocal axes: (cart. coord. in units 2 pi/alat)
               b(1) = ( -1.0000 -1.0000  1.0000 )  
               b(2) = (  1.0000  1.0000  1.0000 )  
               b(3) = ( -1.0000  1.0000 -1.0000 )  


     Atoms inside the unit cell: 

     Cartesian axes

     site n.  atom      mass           positions (alat units)
        1     Al  26.9800   tau(    1) = (    0.00000    0.00000    0.00000  )
        2     As  74.9200   tau(    2) = (    0.25000    0.25000    0.25000  )

     Computing dynamical matrix for 
                    q = (  -0.5000000  -1.0000000   0.0000000 )

      4 Sym.Ops. (no q -> -q+G )


     G cutoff =  178.7306  (    611 G-vectors)     FFT grid: ( 20, 20, 20)
     number of k points=    16

     PseudoPot. # 1 for Al read from file:
     ../../pseudo/Al.pz-vbc.UPF
     MD5 check sum: 69dcd8cd7cc1bedf536afd524f174f6a
     Pseudo is Norm-conserving, Zval =  3.0
     Generated by new atomic code, or converted to UPF format
     Using radial grid of  171 points,  2 beta functions with: 
                l(1) =   0
                l(2) =   1

     PseudoPot. # 2 for As read from file:
     ../../pseudo/As.pz-bhs.UPF
     MD5 check sum: d9127a8b584737f42ec2fe47e3acdea8
     Pseudo is Norm-conserving, Zval =  5.0
     Generated by new atomic code, or converted to UPF format
     Using radial grid of  525 points,  2 beta functions with: 
                l(1) =   0
                l(2) =   1

     Mode symmetry, S_4 (-4)    point group:


     Atomic displacements:
     There are    6 irreducible representations

     Representation     1      1 modes -  To be done

     Representation     2      1 modes -  To be done

     Representation     3      1 modes -  To be done

     Representation     4      1 modes -  To be done

     Representation     5      1 modes -  To be done

     Representation     6      1 modes -  To be done



     Alpha used in Ewald sum =   0.7000
     PHONON       :      5.70s CPU      6.44s WALL



     Representation #   1 mode #   1

     Self-consistent Calculation

      iter #   1 total cpu time :     6.5 secs   av.it.:   6.2
      thresh= 1.000E-02 alpha_mix =  0.700 |ddv_scf|^2 =  6.988E-05

      iter #   2 total cpu time :     6.5 secs   av.it.:   9.0
      thresh= 8.359E-04 alpha_mix =  0.700 |ddv_scf|^2 =  7.443E-05

      iter #   3 total cpu time :     6.5 secs   av.it.:   8.2
      thresh= 8.627E-04 alpha_mix =  0.700 |ddv_scf|^2 =  7.810E-10

      iter #   4 total cpu time :     6.5 secs   av.it.:   9.0
      thresh= 2.795E-06 alpha_mix =  0.700 |ddv_scf|^2 =  7.947E-11

      iter #   5 total cpu time :     6.5 secs   av.it.:   8.2
      thresh= 8.915E-07 alpha_mix =  0.700 |ddv_scf|^2 =  1.741E-13

      iter #   6 total cpu time :     6.6 secs   av.it.:   8.2
      thresh= 4.172E-08 alpha_mix =  0.700 |ddv_scf|^2 =  7.534E-15

     End of self-consistent calculation

     Convergence has been achieved 


     Representation #   2 mode #   2

     Self-consistent Calculation

      iter #   1 total cpu time :     6.6 secs   av.it.:   6.2
      thresh= 1.000E-02 alpha_mix =  0.700 |ddv_scf|^2 =  5.006E-05

      iter #   2 total cpu time :     6.6 secs   av.it.:   9.0
      thresh= 7.075E-04 alpha_mix =  0.700 |ddv_scf|^2 =  3.097E-05

      iter #   3 total cpu time :     6.6 secs   av.it.:   8.2
      thresh= 5.565E-04 alpha_mix =  0.700 |ddv_scf|^2 =  5.222E-10

      iter #   4 total cpu time :     6.6 secs   av.it.:   8.5
      thresh= 2.285E-06 alpha_mix =  0.700 |ddv_scf|^2 =  4.886E-11

      iter #   5 total cpu time :     6.7 secs   av.it.:   8.2
      thresh= 6.990E-07 alpha_mix =  0.700 |ddv_scf|^2 =  9.501E-14

      iter #   6 total cpu time :     6.7 secs   av.it.:   9.1
      thresh= 3.082E-08 alpha_mix =  0.700 |ddv_scf|^2 =  7.113E-16

     End of self-consistent calculation

     Convergence has been achieved 


     Representation #   3 mode #   3

     Self-consistent Calculation

      iter #   1 total cpu time :     6.7 secs   av.it.:   5.5
      thresh= 1.000E-02 alpha_mix =  0.700 |ddv_scf|^2 =  5.892E-06

      iter #   2 total cpu time :     6.7 secs   av.it.:   9.0
      thresh= 2.427E-04 alpha_mix =  0.700 |ddv_scf|^2 =  3.650E-06

      iter #   3 total cpu time :     6.7 secs   av.it.:   8.2
      thresh= 1.910E-04 alpha_mix =  0.700 |ddv_scf|^2 =  8.512E-10

      iter #   4 total cpu time :     6.7 secs   av.it.:   8.0
      thresh= 2.918E-06 alpha_mix =  0.700 |ddv_scf|^2 =  5.614E-11

      iter #   5 total cpu time :     6.7 secs   av.it.:   8.0
      thresh= 7.493E-07 alpha_mix =  0.700 |ddv_scf|^2 =  9.430E-15

     End of self-consistent calculation

     Convergence has been achieved 


     Representation #   4 mode #   4

     Self-consistent Calculation

      iter #   1 total cpu time :     6.8 secs   av.it.:   6.2
      thresh= 1.000E-02 alpha_mix =  0.700 |ddv_scf|^2 =  2.824E-05

      iter #   2 total cpu time :     6.8 secs   av.it.:   9.1
      thresh= 5.314E-04 alpha_mix =  0.700 |ddv_scf|^2 =  1.351E-05

      iter #   3 total cpu time :     6.8 secs   av.it.:   8.2
      thresh= 3.676E-04 alpha_mix =  0.700 |ddv_scf|^2 =  1.551E-09

      iter #   4 total cpu time :     6.8 secs   av.it.:   8.8
      thresh= 3.938E-06 alpha_mix =  0.700 |ddv_scf|^2 =  5.699E-11

      iter #   5 total cpu time :     6.8 secs   av.it.:   8.8
      thresh= 7.549E-07 alpha_mix =  0.700 |ddv_scf|^2 =  1.162E-13

      iter #   6 total cpu time :     6.8 secs   av.it.:   9.1
      thresh= 3.409E-08 alpha_mix =  0.700 |ddv_scf|^2 =  1.280E-15

     End of self-consistent calculation

     Convergence has been achieved 


     Representation #   5 mode #   5

     Self-consistent Calculation

      iter #   1 total cpu time :     6.8 secs   av.it.:   5.8
      thresh= 1.000E-02 alpha_mix =  0.700 |ddv_scf|^2 =  7.732E-06

      iter #   2 total cpu time :     6.9 secs   av.it.:   9.1
      thresh= 2.781E-04 alpha_mix =  0.700 |ddv_scf|^2 =  3.397E-06

      iter #   3 total cpu time :     6.9 secs   av.it.:   8.2
      thresh= 1.843E-04 alpha_mix =  0.700 |ddv_scf|^2 =  9.847E-10

      iter #   4 total cpu time :     6.9 secs   av.it.:   8.2
      thresh= 3.138E-06 alpha_mix =  0.700 |ddv_scf|^2 =  1.621E-11

      iter #   5 total cpu time :     6.9 secs   av.it.:   8.2
      thresh= 4.026E-07 alpha_mix =  0.700 |ddv_scf|^2 =  4.498E-14

      iter #   6 total cpu time :     6.9 secs   av.it.:   9.0
      thresh= 2.121E-08 alpha_mix =  0.700 |ddv_scf|^2 =  3.259E-16

     End of self-consistent calculation

     Convergence has been achieved 


     Representation #   6 mode #   6

     Self-consistent Calculation

      iter #   1 total cpu time :     6.9 secs   av.it.:   5.5
      thresh= 1.000E-02 alpha_mix =  0.700 |ddv_scf|^2 =  8.943E-06

      iter #   2 total cpu time :     7.0 secs   av.it.:   8.8
      thresh= 2.991E-04 alpha_mix =  0.700 |ddv_scf|^2 =  6.127E-06

      iter #   3 total cpu time :     7.0 secs   av.it.:   8.2
      thresh= 2.475E-04 alpha_mix =  0.700 |ddv_scf|^2 =  6.918E-09

      iter #   4 total cpu time :     7.0 secs   av.it.:   8.2
      thresh= 8.317E-06 alpha_mix =  0.700 |ddv_scf|^2 =  8.034E-11

      iter #   5 total cpu time :     7.0 secs   av.it.:   8.0
      thresh= 8.963E-07 alpha_mix =  0.700 |ddv_scf|^2 =  1.126E-13

      iter #   6 total cpu time :     7.0 secs   av.it.:   8.4
      thresh= 3.355E-08 alpha_mix =  0.700 |ddv_scf|^2 =  1.092E-15

     End of self-consistent calculation

     Convergence has been achieved 

     Number of q in the star =    6
     List of q in the star:
          1  -0.500000000  -1.000000000   0.000000000
          2   0.000000000   1.000000000  -0.500000000
          3   0.000000000   1.000000000   0.500000000
          4   0.500000000   1.000000000   0.000000000
          5   0.000000000  -0.500000000  -1.000000000
          6   0.000000000   0.500000000  -1.000000000

     Diagonalizing the dynamical matrix

     q = (   -0.500000000  -1.000000000   0.000000000 ) 

 **************************************************************************
     freq (    1) =       3.745914 [THz] =     124.950249 [cm-1]
     freq (    2) =       4.014684 [THz] =     133.915449 [cm-1]
     freq (    3) =       5.964038 [THz] =     198.938906 [cm-1]
     freq (    4) =      10.536703 [THz] =     351.466564 [cm-1]
     freq (    5) =      10.642648 [THz] =     355.000542 [cm-1]
     freq (    6) =      10.759301 [THz] =     358.891659 [cm-1]
 **************************************************************************

     Mode symmetry, S_4 (-4)    point group:

     freq (   1-   1) =        125.0  [cm-1]   --> B    W_3           
     freq (   2-   2) =        133.9  [cm-1]   --> E    W_4           
     freq (   3-   3) =        198.9  [cm-1]   --> A    W_1           
     freq (   4-   4) =        351.5  [cm-1]   --> B    W_3           
     freq (   5-   5) =        355.0  [cm-1]   --> E*   W_2           
     freq (   6-   6) =        358.9  [cm-1]   --> E    W_4           

     init_run     :      0.05s CPU      0.06s WALL (       7 calls)
     electrons    :      0.46s CPU      0.50s WALL (       7 calls)

     Called by init_run:
     wfcinit      :      0.00s CPU      0.00s WALL (       7 calls)
     potinit      :      0.00s CPU      0.00s WALL (       7 calls)
     hinit0       :      0.04s CPU      0.05s WALL (       7 calls)

     Called by electrons:
     c_bands      :      0.46s CPU      0.50s WALL (       7 calls)
     v_of_rho     :      0.00s CPU      0.00s WALL (       8 calls)

     Called by c_bands:
     init_us_2    :      0.05s CPU      0.06s WALL (    4422 calls)
     init_us_2:cp :      0.04s CPU      0.05s WALL (    4422 calls)
     cegterg      :      0.31s CPU      0.34s WALL (     156 calls)

     Called by *egterg:
     cdiaghg      :      0.06s CPU      0.06s WALL (    1938 calls)
     h_psi        :      3.40s CPU      3.86s WALL (   34726 calls)
     g_psi        :      0.00s CPU      0.00s WALL (    1782 calls)

     Called by h_psi:
     h_psi:calbec :      0.26s CPU      0.30s WALL (   34726 calls)
     vloc_psi     :      2.90s CPU      3.29s WALL (   34726 calls)
     add_vuspsi   :      0.16s CPU      0.18s WALL (   34726 calls)

     General routines
     calbec       :      0.46s CPU      0.53s WALL (   70084 calls)
     fft          :      0.22s CPU      0.22s WALL (    1028 calls)
     ffts         :      0.01s CPU      0.02s WALL (     720 calls)
     fftw         :      2.99s CPU      3.39s WALL (  304566 calls)
     davcio       :      0.09s CPU      0.11s WALL (   20174 calls)

     Parallel routines

     PHONON       :      6.19s CPU      7.02s WALL

     INITIALIZATION: 
     phq_setup    :      0.00s CPU      0.00s WALL (       8 calls)
     phq_init     :      0.03s CPU      0.04s WALL (       8 calls)

     phq_init     :      0.03s CPU      0.04s WALL (       8 calls)
     init_vloc    :      0.00s CPU      0.00s WALL (       8 calls)
     init_us_1    :      0.01s CPU      0.01s WALL (       8 calls)
     init_us_2    :      0.05s CPU      0.06s WALL (    4422 calls)

     DYNAMICAL MATRIX:
     dynmat0      :      0.01s CPU      0.01s WALL (       8 calls)
     dynmat_us    :      0.01s CPU      0.01s WALL (       8 calls)
     d2ionq       :      0.00s CPU      0.00s WALL (       8 calls)
     phqscf       :      5.29s CPU      6.04s WALL (       8 calls)
     dynmatrix    :      0.01s CPU      0.01s WALL (       8 calls)

     phqscf       :      5.29s CPU      6.04s WALL (       8 calls)
     solve_linter :      5.25s CPU      5.99s WALL (      38 calls)
     sth_kernel   :      4.76s CPU      5.43s WALL (     267 calls)
     h_prec       :      0.02s CPU      0.02s WALL (    3228 calls)
     apply_dpot_b :      0.30s CPU      0.34s WALL (    2998 calls)
     ortho        :      0.03s CPU      0.03s WALL (    3490 calls)
     cgsolve      :      4.01s CPU      4.57s WALL (    3490 calls)
     incdrhoscf   :      0.32s CPU      0.36s WALL (    3484 calls)
                                        0.00s GPU  (    3484 calls)
     dv_of_drho   :      0.05s CPU      0.05s WALL (     332 calls)
     mix_pot      :      0.06s CPU      0.08s WALL (     267 calls)
     drhodv       :      0.03s CPU      0.04s WALL (      38 calls)
     psymdvscf    :      0.31s CPU      0.34s WALL (     261 calls)

     dvqpsi_us    :      0.06s CPU      0.08s WALL (     492 calls)
                                        0.00s GPU  (     492 calls)
     dvqpsi_us_on :      0.01s CPU      0.01s WALL (     492 calls)

     add_vuspsi   :      0.16s CPU      0.18s WALL (   34726 calls)


      General routines
     calbec       :      0.46s CPU      0.53s WALL (   70084 calls)
     fft          :      0.22s CPU      0.22s WALL (    1028 calls)
     ffts         :      0.01s CPU      0.02s WALL (     720 calls)
     fftw         :      2.99s CPU      3.39s WALL (  304566 calls)
     davcio       :      0.09s CPU      0.11s WALL (   20174 calls)
     write_rec    :      0.06s CPU      0.07s WALL (     305 calls)

      Additional routines
     ch_psi       :      3.73s CPU      4.26s WALL (   32632 calls)
     last         :      0.56s CPU      0.63s WALL (   32632 calls)
     Hesh         :      0.02s CPU      0.02s WALL (   32632 calls)
     ch_psi_all_k :      0.50s CPU      0.57s WALL (   32632 calls)
                                        0.00s GPU  (   32632 calls)
     ch_psi_calbe :      0.23s CPU      0.26s WALL (   32632 calls)
                                        0.00s GPU  (   32632 calls)
     h_psi_bgrp   :      3.43s CPU      3.89s WALL (   34726 calls)
     h_psi        :      3.40s CPU      3.86s WALL (   34726 calls)
     h_psi:pot    :      3.37s CPU      3.82s WALL (   34726 calls)
     h_psi:calbec :      0.26s CPU      0.30s WALL (   34726 calls)
     s_psi_bgrp   :      0.03s CPU      0.03s WALL (   68754 calls)


     PHONON       :      6.20s CPU      7.02s WALL


   This run was terminated on:  12:46:42  30May2023            

=------------------------------------------------------------------------------=
   JOB DONE.
=------------------------------------------------------------------------------=
