
     Program PHONON v.7.2 starts on 30May2023 at 10:46: 1 

     This program is part of the open-source Quantum ESPRESSO suite
     for quantum simulation of materials; please cite
         "P. Giannozzi et al., J. Phys.:Condens. Matter 21 395502 (2009);
         "P. Giannozzi et al., J. Phys.:Condens. Matter 29 465901 (2017);
         "P. Giannozzi et al., J. Chem. Phys. 152 154105 (2020);
          URL http://www.quantum-espresso.org", 
     in publications or presentations arising from this work. More details at
     http://www.quantum-espresso.org/quote

     Parallel version (MPI), running on     4 processors

     MPI processes distributed on     1 nodes
     936 MiB available memory on the printing compute node when the environment starts

     Reading input from AlAs.ph.in

     Reading xml data from directory:

     ./tmp/AlAs.save/

     R & G space division:  proc/nbgrp/npool/nimage =       4
     Subspace diagonalization in iterative solution of the eigenvalue problem:
     a serial algorithm will be used


     IMPORTANT: XC functional enforced from input :
     Exchange-correlation= PZ
                           (   1   1   0   0   0   0   0)
     Any further DFT definition will be discarded
     Please, verify this is what you really want


     Parallelization info
     --------------------
     sticks:   dense  smooth     PW     G-vecs:    dense   smooth      PW
     Min          60      60     20                  610      610     114
     Max          61      61     22                  613      613     115
     Sum         241     241     85                 2445     2445     459

     Using Slab Decomposition

     Reading collected, re-writing distributed wavefunctions in ./tmp/

     Calculation of q =    0.0000000   0.0000000   0.0000000

     Phonons at Gamma                                                           

     bravais-lattice index     =            2
     lattice parameter (alat)  =      10.5000  a.u.
     unit-cell volume          =     289.4062 (a.u.)^3
     number of atoms/cell      =            2
     number of atomic types    =            2
     kinetic-energy cut-off    =      16.0000  Ry
     charge density cut-off    =      64.0000  Ry
     convergence threshold     =      1.0E-14
     beta                      =       0.7000
     number of iterations used =            4
     Exchange-correlation= PZ
                           (   1   1   0   0   0   0   0)


     celldm(1)=   10.50000  celldm(2)=    0.00000  celldm(3)=    0.00000
     celldm(4)=    0.00000  celldm(5)=    0.00000  celldm(6)=    0.00000

     crystal axes: (cart. coord. in units of alat)
               a(1) = ( -0.5000  0.0000  0.5000 )  
               a(2) = (  0.0000  0.5000  0.5000 )  
               a(3) = ( -0.5000  0.5000  0.0000 )  

     reciprocal axes: (cart. coord. in units 2 pi/alat)
               b(1) = ( -1.0000 -1.0000  1.0000 )  
               b(2) = (  1.0000  1.0000  1.0000 )  
               b(3) = ( -1.0000  1.0000 -1.0000 )  


     Atoms inside the unit cell: 

     Cartesian axes

     site n.  atom      mass           positions (alat units)
        1     Al  26.9800   tau(    1) = (    0.00000    0.00000    0.00000  )
        2     As  74.9200   tau(    2) = (    0.25000    0.25000    0.25000  )

     Computing dynamical matrix for 
                    q = (   0.0000000   0.0000000   0.0000000 )

     25 Sym.Ops. (with q -> -q+G )


     G cutoff =  178.7306  (    611 G-vectors)     FFT grid: ( 20, 20, 20)
     number of k points=     2
                       cart. coord. in units 2pi/alat
        k(    1) = (   0.2500000   0.2500000   0.2500000), wk =   0.5000000
        k(    2) = (   0.2500000   0.2500000   0.7500000), wk =   1.5000000

     PseudoPot. # 1 for Al read from file:
     ../../pseudo/Al.pz-vbc.UPF
     MD5 check sum: 69dcd8cd7cc1bedf536afd524f174f6a
     Pseudo is Norm-conserving, Zval =  3.0
     Generated by new atomic code, or converted to UPF format
     Using radial grid of  171 points,  2 beta functions with: 
                l(1) =   0
                l(2) =   1

     PseudoPot. # 2 for As read from file:
     ../../pseudo/As.pz-bhs.UPF
     MD5 check sum: d9127a8b584737f42ec2fe47e3acdea8
     Pseudo is Norm-conserving, Zval =  5.0
     Generated by new atomic code, or converted to UPF format
     Using radial grid of  525 points,  2 beta functions with: 
                l(1) =   0
                l(2) =   1

     Mode symmetry, T_d (-43m)  point group:


     Electric field:
     Dielectric constant
     Born effective charges as d Force / d E


     Atomic displacements:
     There are    2 irreducible representations

     Representation     1      3 modes -  To be done

     Representation     2      3 modes -  To be done



     Alpha used in Ewald sum =   0.7000
     PHONON       :      0.17s CPU      0.19s WALL


     Electric Fields Calculation

      iter #   1 total cpu time :     0.3 secs   av.it.:   6.0
      thresh= 1.000E-02 alpha_mix =  0.700 |ddv_scf|^2 =  1.326E-06

      iter #   2 total cpu time :     0.3 secs   av.it.:   9.3
      thresh= 1.152E-04 alpha_mix =  0.700 |ddv_scf|^2 =  6.509E-08

      iter #   3 total cpu time :     0.3 secs   av.it.:   9.3
      thresh= 2.551E-05 alpha_mix =  0.700 |ddv_scf|^2 =  6.401E-10

      iter #   4 total cpu time :     0.3 secs   av.it.:   9.7
      thresh= 2.530E-06 alpha_mix =  0.700 |ddv_scf|^2 =  3.108E-12

      iter #   5 total cpu time :     0.4 secs   av.it.:   9.0
      thresh= 1.763E-07 alpha_mix =  0.700 |ddv_scf|^2 =  1.543E-14

      iter #   6 total cpu time :     0.4 secs   av.it.:   9.7
      thresh= 1.242E-08 alpha_mix =  0.700 |ddv_scf|^2 =  1.670E-16

     End of electric fields calculation

          Dielectric constant in cartesian axis 

          (      13.743997537       0.000000000       0.000000000 )
          (       0.000000000      13.743997537       0.000000000 )
          (       0.000000000       0.000000000      13.743997537 )

          Effective charges (d Force / dE) in cartesian axis without acoustic sum rule applied (asr)

           atom      1   Al Mean Z*:        1.88275
      Ex  (        1.88275       -0.00000        0.00000 )
      Ey  (        0.00000        1.88275        0.00000 )
      Ez  (       -0.00000       -0.00000        1.88275 )
           atom      2   As Mean Z*:       -3.23400
      Ex  (       -3.23400        0.00000       -0.00000 )
      Ey  (        0.00000       -3.23400       -0.00000 )
      Ez  (       -0.00000        0.00000       -3.23400 )

          Effective charges Sum: Mean:       -1.35125
             -1.35125        0.00000       -0.00000
              0.00000       -1.35125        0.00000
             -0.00000       -0.00000       -1.35125

          Effective charges (d Force / dE) in cartesian axis with asr applied: 
           atom      1   Al Mean Z*:        2.55837
      E*x (        2.55837       -0.00000        0.00000 )
      E*y (       -0.00000        2.55837        0.00000 )
      E*z (        0.00000       -0.00000        2.55837 )
           atom      2   As Mean Z*:       -2.55837
      E*x (       -2.55837        0.00000       -0.00000 )
      E*y (        0.00000       -2.55837       -0.00000 )
      E*z (       -0.00000        0.00000       -2.55837 )


     Representation #   1 modes #   1   2   3

     Self-consistent Calculation

      iter #   1 total cpu time :     0.4 secs   av.it.:   5.7
      thresh= 1.000E-02 alpha_mix =  0.700 |ddv_scf|^2 =  4.663E-07

      iter #   2 total cpu time :     0.4 secs   av.it.:   9.8
      thresh= 6.829E-05 alpha_mix =  0.700 |ddv_scf|^2 =  2.274E-08

      iter #   3 total cpu time :     0.5 secs   av.it.:   9.7
      thresh= 1.508E-05 alpha_mix =  0.700 |ddv_scf|^2 =  3.796E-11

      iter #   4 total cpu time :     0.5 secs   av.it.:   9.5
      thresh= 6.161E-07 alpha_mix =  0.700 |ddv_scf|^2 =  7.213E-13

      iter #   5 total cpu time :     0.5 secs   av.it.:   9.5
      thresh= 8.493E-08 alpha_mix =  0.700 |ddv_scf|^2 =  7.416E-15

     End of self-consistent calculation

     Convergence has been achieved 


     Representation #   2 modes #   4   5   6

     Self-consistent Calculation

      iter #   1 total cpu time :     0.5 secs   av.it.:   5.0
      thresh= 1.000E-02 alpha_mix =  0.700 |ddv_scf|^2 =  2.917E-08

      iter #   2 total cpu time :     0.6 secs   av.it.:  10.0
      thresh= 1.708E-05 alpha_mix =  0.700 |ddv_scf|^2 =  3.284E-10

      iter #   3 total cpu time :     0.6 secs   av.it.:   9.0
      thresh= 1.812E-06 alpha_mix =  0.700 |ddv_scf|^2 =  3.027E-11

      iter #   4 total cpu time :     0.6 secs   av.it.:   9.5
      thresh= 5.502E-07 alpha_mix =  0.700 |ddv_scf|^2 =  1.311E-12

      iter #   5 total cpu time :     0.6 secs   av.it.:   9.5
      thresh= 1.145E-07 alpha_mix =  0.700 |ddv_scf|^2 =  4.743E-16

     End of self-consistent calculation

     Convergence has been achieved 

     Number of q in the star =    1
     List of q in the star:
          1   0.000000000   0.000000000   0.000000000

          Dielectric constant in cartesian axis 

          (      13.743997537       0.000000000       0.000000000 )
          (       0.000000000      13.743997537       0.000000000 )
          (       0.000000000       0.000000000      13.743997537 )

          Effective charges (d Force / dE) in cartesian axis without acoustic sum rule applied (asr)

           atom      1   Al Mean Z*:        1.88275
      Ex  (        1.88275       -0.00000        0.00000 )
      Ey  (        0.00000        1.88275        0.00000 )
      Ez  (       -0.00000       -0.00000        1.88275 )
           atom      2   As Mean Z*:       -3.23400
      Ex  (       -3.23400        0.00000       -0.00000 )
      Ey  (        0.00000       -3.23400       -0.00000 )
      Ez  (       -0.00000        0.00000       -3.23400 )

          Effective charges Sum: Mean:       -1.35125
             -1.35125        0.00000       -0.00000
              0.00000       -1.35125        0.00000
             -0.00000       -0.00000       -1.35125

          Effective charges (d Force / dE) in cartesian axis with asr applied: 
           atom      1   Al Mean Z*:        2.55837
      E*x (        2.55837       -0.00000        0.00000 )
      E*y (       -0.00000        2.55837        0.00000 )
      E*z (        0.00000       -0.00000        2.55837 )
           atom      2   As Mean Z*:       -2.55837
      E*x (       -2.55837        0.00000       -0.00000 )
      E*y (        0.00000       -2.55837       -0.00000 )
      E*z (       -0.00000        0.00000       -2.55837 )

     Diagonalizing the dynamical matrix

     q = (    0.000000000   0.000000000   0.000000000 ) 

 **************************************************************************
     freq (    1) =       0.151928 [THz] =       5.067777 [cm-1]
     freq (    2) =       0.151928 [THz] =       5.067777 [cm-1]
     freq (    3) =       0.151928 [THz] =       5.067777 [cm-1]
     freq (    4) =      11.258171 [THz] =     375.532153 [cm-1]
     freq (    5) =      11.258171 [THz] =     375.532153 [cm-1]
     freq (    6) =      11.258171 [THz] =     375.532153 [cm-1]
 **************************************************************************

     Mode symmetry, T_d (-43m)  point group:

     freq (   1-   3) =          5.1  [cm-1]   --> T_2  G_15 P_4   I+R
     freq (   4-   6) =        375.5  [cm-1]   --> T_2  G_15 P_4   I+R

     PHONON       :      0.59s CPU      0.64s WALL

     INITIALIZATION: 
     phq_setup    :      0.00s CPU      0.00s WALL (       1 calls)
     phq_init     :      0.00s CPU      0.00s WALL (       1 calls)

     phq_init     :      0.00s CPU      0.00s WALL (       1 calls)
     init_vloc    :      0.00s CPU      0.00s WALL (       1 calls)
     init_us_1    :      0.00s CPU      0.00s WALL (       1 calls)
     init_us_2    :      0.00s CPU      0.00s WALL (      52 calls)

     DIELECTRIC CONSTANT AND EFFECTIVE CHARGES:
     solve_e      :      0.18s CPU      0.19s WALL (       1 calls)
     dielec       :      0.00s CPU      0.00s WALL (       1 calls)
     zstar_eu     :      0.00s CPU      0.00s WALL (       1 calls)

     DYNAMICAL MATRIX:
     dynmat0      :      0.00s CPU      0.00s WALL (       1 calls)
     dynmat_us    :      0.00s CPU      0.00s WALL (       1 calls)
     d2ionq       :      0.00s CPU      0.00s WALL (       1 calls)
     phqscf       :      0.23s CPU      0.25s WALL (       1 calls)
     dynmatrix    :      0.00s CPU      0.00s WALL (       1 calls)

     phqscf       :      0.23s CPU      0.25s WALL (       1 calls)
     solve_linter :      0.23s CPU      0.25s WALL (       2 calls)
     sth_kernel   :      0.19s CPU      0.20s WALL (      16 calls)
     h_prec       :      0.00s CPU      0.00s WALL (      38 calls)
     apply_dpot_b :      0.01s CPU      0.01s WALL (      78 calls)
     ortho        :      0.00s CPU      0.00s WALL (     102 calls)
     cgsolve      :      0.21s CPU      0.23s WALL (     102 calls)
     incdrhoscf   :      0.01s CPU      0.01s WALL (      96 calls)
                                        0.00s GPU  (      96 calls)
     dv_of_drho   :      0.02s CPU      0.02s WALL (      48 calls)
     mix_pot      :      0.01s CPU      0.01s WALL (      16 calls)
     drhodv       :      0.00s CPU      0.00s WALL (       2 calls)
     psymdvscf    :      0.11s CPU      0.11s WALL (      10 calls)

     dvqpsi_us    :      0.00s CPU      0.01s WALL (      24 calls)
                                        0.00s GPU  (      24 calls)
     dvqpsi_us_on :      0.00s CPU      0.00s WALL (      24 calls)

     add_vuspsi   :      0.01s CPU      0.01s WALL (    1118 calls)


      General routines
     calbec       :      0.02s CPU      0.02s WALL (    2310 calls)
     fft          :      0.16s CPU      0.17s WALL (     148 calls)
     ffts         :      0.00s CPU      0.00s WALL (      36 calls)
     fftw         :      0.15s CPU      0.16s WALL (    9506 calls)
     davcio       :      0.01s CPU      0.01s WALL (     500 calls)
     write_rec    :      0.00s CPU      0.01s WALL (      18 calls)

      Additional routines
     ch_psi       :      0.20s CPU      0.21s WALL (    1118 calls)
     last         :      0.03s CPU      0.03s WALL (    1118 calls)
     Hesh         :      0.00s CPU      0.00s WALL (    1118 calls)
     ch_psi_all_k :      0.02s CPU      0.03s WALL (    1118 calls)
                                        0.00s GPU  (    1118 calls)
     ch_psi_calbe :      0.01s CPU      0.01s WALL (    1118 calls)
                                        0.00s GPU  (    1118 calls)
     h_psi_bgrp   :      0.17s CPU      0.18s WALL (    1118 calls)
     h_psi        :      0.17s CPU      0.18s WALL (    1118 calls)
     h_psi:pot    :      0.17s CPU      0.18s WALL (    1118 calls)
     h_psi:calbec :      0.01s CPU      0.01s WALL (    1118 calls)
     s_psi_bgrp   :      0.00s CPU      0.00s WALL (    2338 calls)


     PHONON       :      0.59s CPU      0.64s WALL


   This run was terminated on:  10:46: 2  30May2023            

=------------------------------------------------------------------------------=
   JOB DONE.
=------------------------------------------------------------------------------=
