
     Program DYNMAT v.7.2 starts on 30May2023 at 10:49:16 

     This program is part of the open-source Quantum ESPRESSO suite
     for quantum simulation of materials; please cite
         "P. Giannozzi et al., J. Phys.:Condens. Matter 21 395502 (2009);
         "P. Giannozzi et al., J. Phys.:Condens. Matter 29 465901 (2017);
         "P. Giannozzi et al., J. Chem. Phys. 152 154105 (2020);
          URL http://www.quantum-espresso.org", 
     in publications or presentations arising from this work. More details at
     http://www.quantum-espresso.org/quote

     Parallel version (MPI), running on     4 processors

     MPI processes distributed on     1 nodes
     R & G space division:  proc/nbgrp/npool/nimage =       4
     940 MiB available memory on the printing compute node when the environment starts


     Reading Dynamical Matrix from file AlAs.dyn
     ...Force constants read
     ...epsilon and Z* read

     Polarizability (A^3 units)
     multiply by 0.190549 for Clausius-Mossotti correction
        43.491774    0.000000    0.000000
         0.000000   43.491774    0.000000
         0.000000    0.000000   43.491774

     IR activities are in (D/A)^2/amu units

# mode   [cm-1]    [THz]      IR
    1     -0.00   -0.0000    0.0000
    2     -0.00   -0.0000    0.0000
    3     -0.00   -0.0000    0.0000
    4    375.51   11.2574    7.6126
    5    375.51   11.2574    7.6126
    6    410.55   12.3080    7.6126

     DYNMAT       :      0.00s CPU      0.00s WALL


   This run was terminated on:  10:49:16  30May2023            

=------------------------------------------------------------------------------=
   JOB DONE.
=------------------------------------------------------------------------------=
