[Molden Format]
[FREQ]
    0.00
    0.00
    0.00
  375.51
  375.51
  410.55
[FR-COORD]
   Al          0.00000        0.00000        0.00000
   As          2.62500        2.62500        2.62500
[FR-NORM-COORD]
 vibration     1
   0.00078  -0.13463  -0.69417
   0.00078  -0.13463  -0.69417
 vibration     2
  -0.13680   0.68103  -0.13223
  -0.13680   0.68103  -0.13223
 vibration     3
   0.69375   0.13444  -0.02530
   0.69375   0.13444  -0.02530
 vibration     4
   0.00000   0.00000  -0.94085
   0.00000  -0.00000   0.33882
 vibration     5
  -0.00000  -0.94085  -0.00000
   0.00000   0.33882  -0.00000
 vibration     6
  -0.94085   0.00000   0.00000
   0.33882  -0.00000   0.00000
