
     Program DYNMAT v.7.2 starts on 30May2023 at 10:26:36 

     This program is part of the open-source Quantum ESPRESSO suite
     for quantum simulation of materials; please cite
         "P. Giannozzi et al., J. Phys.:Condens. Matter 21 395502 (2009);
         "P. Giannozzi et al., J. Phys.:Condens. Matter 29 465901 (2017);
         "P. Giannozzi et al., J. Chem. Phys. 152 154105 (2020);
          URL http://www.quantum-espresso.org", 
     in publications or presentations arising from this work. More details at
     http://www.quantum-espresso.org/quote

     Parallel version (MPI), running on     4 processors

     MPI processes distributed on     1 nodes
     R & G space division:  proc/nbgrp/npool/nimage =       4
     897 MiB available memory on the printing compute node when the environment starts


     Reading Dynamical Matrix from file Si.dyn
     ...Force constants read
     ...epsilon and Z* read
     A direction for q was not specified:TO-LO splitting will be absent

     Polarizability (A^3 units)
     multiply by 0.189797 for Clausius-Mossotti correction
        40.064560    0.000000   -0.000000
        -0.000000   40.064560    0.000000
        -0.000000    0.000000   40.064560

     IR activities are in (D/A)^2/amu units

# mode   [cm-1]    [THz]      IR
    1      0.00    0.0000    0.0000
    2      0.00    0.0000    0.0000
    3      0.00    0.0000    0.0000
    4    510.10   15.2923    0.0000
    5    510.10   15.2923    0.0000
    6    510.10   15.2923    0.0000

     DYNMAT       :      0.00s CPU      0.00s WALL


   This run was terminated on:  10:26:36  30May2023            

=------------------------------------------------------------------------------=
   JOB DONE.
=------------------------------------------------------------------------------=
